ITEM: TIMESTEP
0
ITEM: NUMBER OF ATOMS
2000
ITEM: BOX BOUNDS pp pp pp
0 32.40
0 32.40
0 32.40
ITEM: ATOMS id type x y z
1 3 0.00 0.00 0.00
2 2 0.00 0.00 3.24
3 3 0.00 0.00 6.48
4 1 0.00 0.00 9.72
5 2 0.00 0.00 12.96
6 1 0.00 0.00 16.20
7 1 0.00 0.00 19.44
8 2 0.00 0.00 22.68
9 2 0.00 0.00 25.92
10 3 0.00 0.00 29.16
11 1 3.24 0.00 0.00
12 2 3.24 0.00 3.24
13 3 3.24 0.00 6.48
14 2 3.24 0.00 9.72
15 3 3.24 0.00 12.96
16 1 3.24 0.00 16.20
17 2 3.24 0.00 19.44
18 3 3.24 0.00 22.68
19 1 3.24 0.00 25.92
20 2 3.24 0.00 29.16
21 1 6.48 0.00 0.00
22 3 6.48 0.00 3.24
23 1 6.48 0.00 6.48
24 3 6.48 0.00 9.72
25 1 6.48 0.00 12.96
26 2 6.48 0.00 16.20
27 1 6.48 0.00 19.44
28 2 6.48 0.00 22.68
29 1 6.48 0.00 25.92
30 1 6.48 0.00 29.16
31 2 9.72 0.00 0.00
32 3 9.72 0.00 3.24
33 2 9.72 0.00 6.48
34 1 9.72 0.00 9.72
35 2 9.72 0.00 12.96
36 2 9.72 0.00 16.20
37 1 9.72 0.00 19.44
38 3 9.72 0.00 22.68
39 1 9.72 0.00 25.92
40 2 9.72 0.00 29.16
41 2 12.96 0.00 0.00
42 1 12.96 0.00 3.24
43 1 12.96 0.00 6.48
44 2 12.96 0.00 9.72
45 2 12.96 0.00 12.96
46 2 12.96 0.00 16.20
47 2 12.96 0.00 19.44
48 2 12.96 0.00 22.68
49 3 12.96 0.00 25.92
50 1 12.96 0.00 29.16
51 3 16.20 0.00 0.00
52 1 16.20 0.00 3.24
53 3 16.20 0.00 6.48
54 1 16.20 0.00 9.72
55 1 16.20 0.00 12.96
56 2 16.20 0.00 16.20
57 2 16.20 0.00 19.44
58 3 16.20 0.00 22.68
59 3 16.20 0.00 25.92
60 2 16.20 0.00 29.16
61 1 19.44 0.00 0.00
62 1 19.44 0.00 3.24
63 2 19.44 0.00 6.48
64 2 19.44 0.00 9.72
65 1 19.44 0.00 12.96
66 2 19.44 0.00 16.20
67 3 19.44 0.00 19.44
68 1 19.44 0.00 22.68
69 2 19.44 0.00 25.92
70 1 19.44 0.00 29.16
71 3 22.68 0.00 0.00
72 2 22.68 0.00 3.24
73 1 22.68 0.00 6.48
74 3 22.68 0.00 9.72
75 2 22.68 0.00 12.96
76 2 22.68 0.00 16.20
77 2 22.68 0.00 19.44
78 1 22.68 0.00 22.68
79 3 22.68 0.00 25.92
80 3 22.68 0.00 29.16
81 1 25.92 0.00 0.00
82 1 25.92 0.00 3.24
83 2 25.92 0.00 6.48
84 2 25.92 0.00 9.72
85 1 25.92 0.00 12.96
86 3 25.92 0.00 16.20
87 1 25.92 0.00 19.44
88 1 25.92 0.00 22.68
89 2 25.92 0.00 25.92
90 1 25.92 0.00 29.16
91 1 29.16 0.00 0.00
92 3 29.16 0.00 3.24
93 1 29.16 0.00 6.48
94 2 29.16 0.00 9.72
95 2 29.16 0.00 12.96
96 2 29.16 0.00 16.20
97 3 29.16 0.00 19.44
98 2 29.16 0.00 22.68
99 1 29.16 0.00 25.92
100 1 29.16 0.00 29.16
101 3 0.00 3.24 0.00
102 2 0.00 3.24 3.24
103 2 0.00 3.24 6.48
104 3 0.00 3.24 9.72
105 2 0.00 3.24 12.96
106 1 0.00 3.24 16.20
107 1 0.00 3.24 19.44
108 2 0.00 3.24 22.68
109 1 0.00 3.24 25.92
110 1 0.00 3.24 29.16
111 1 3.24 3.24 0.00
112 3 3.24 3.24 3.24
113 2 3.24 3.24 6.48
114 2 3.24 3.24 9.72
115 3 3.24 3.24 12.96
116 1 3.24 3.24 16.20
117 1 3.24 3.24 19.44
118 2 3.24 3.24 22.68
119 3 3.24 3.24 25.92
120 3 3.24 3.24 29.16
121 1 6.48 3.24 0.00
122 1 6.48 3.24 3.24
123 1 6.48 3.24 6.48
124 3 6.48 3.24 9.72
125 2 6.48 3.24 12.96
126 2 6.48 3.24 16.20
127 1 6.48 3.24 19.44
128 3 6.48 3.24 22.68
129 2 6.48 3.24 25.92
130 1 6.48 3.24 29.16
131 3 9.72 3.24 0.00
132 3 9.72 3.24 3.24
133 1 9.72 3.24 6.48
134 3 9.72 3.24 9.72
135 2 9.72 3.24 12.96
136 3 9.72 3.24 16.20
137 2 9.72 3.24 19.44
138 2 9.72 3.24 22.68
139 2 9.72 3.24 25.92
140 3 9.72 3.24 29.16
141 1 12.96 3.24 0.00
142 1 12.96 3.24 3.24
143 2 12.96 3.24 6.48
144 3 12.96 3.24 9.72
145 3 12.96 3.24 12.96
146 1 12.96 3.24 16.20
147 2 12.96 3.24 19.44
148 1 12.96 3.24 22.68
149 1 12.96 3.24 25.92
150 1 12.96 3.24 29.16
151 3 16.20 3.24 0.00
152 1 16.20 3.24 3.24
153 2 16.20 3.24 6.48
154 2 16.20 3.24 9.72
155 3 16.20 3.24 12.96
156 3 16.20 3.24 16.20
157 1 16.20 3.24 19.44
158 3 16.20 3.24 22.68
159 3 16.20 3.24 25.92
160 2 16.20 3.24 29.16
161 1 19.44 3.24 0.00
162 2 19.44 3.24 3.24
163 2 19.44 3.24 6.48
164 1 19.44 3.24 9.72
165 3 19.44 3.24 12.96
166 3 19.44 3.24 16.20
167 2 19.44 3.24 19.44
168 2 19.44 3.24 22.68
169 3 19.44 3.24 25.92
170 3 19.44 3.24 29.16
171 2 22.68 3.24 0.00
172 3 22.68 3.24 3.24
173 1 22.68 3.24 6.48
174 1 22.68 3.24 9.72
175 1 22.68 3.24 12.96
176 2 22.68 3.24 16.20
177 1 22.68 3.24 19.44
178 1 22.68 3.24 22.68
179 2 22.68 3.24 25.92
180 3 22.68 3.24 29.16
181 1 25.92 3.24 0.00
182 2 25.92 3.24 3.24
183 2 25.92 3.24 6.48
184 2 25.92 3.24 9.72
185 3 25.92 3.24 12.96
186 1 25.92 3.24 16.20
187 2 25.92 3.24 19.44
188 1 25.92 3.24 22.68
189 1 25.92 3.24 25.92
190 2 25.92 3.24 29.16
191 2 29.16 3.24 0.00
192 2 29.16 3.24 3.24
193 3 29.16 3.24 6.48
194 1 29.16 3.24 9.72
195 2 29.16 3.24 12.96
196 2 29.16 3.24 16.20
197 3 29.16 3.24 19.44
198 2 29.16 3.24 22.68
199 1 29.16 3.24 25.92
200 2 29.16 3.24 29.16
201 3 0.00 6.48 0.00
202 1 0.00 6.48 3.24
203 3 0.00 6.48 6.48
204 1 0.00 6.48 9.72
205 3 0.00 6.48 12.96
206 1 0.00 6.48 16.20
207 2 0.00 6.48 19.44
208 3 0.00 6.48 22.68
209 2 0.00 6.48 25.92
210 2 0.00 6.48 29.16
211 1 3.24 6.48 0.00
212 1 3.24 6.48 3.24
213 2 3.24 6.48 6.48
214 3 3.24 6.48 9.72
215 2 3.24 6.48 12.96
216 3 3.24 6.48 16.20
217 1 3.24 6.48 19.44
218 2 3.24 6.48 22.68
219 3 3.24 6.48 25.92
220 1 3.24 6.48 29.16
221 2 6.48 6.48 0.00
222 1 6.48 6.48 3.24
223 3 6.48 6.48 6.48
224 3 6.48 6.48 9.72
225 1 6.48 6.48 12.96
226 2 6.48 6.48 16.20
227 3 6.48 6.48 19.44
228 1 6.48 6.48 22.68
229 2 6.48 6.48 25.92
230 2 6.48 6.48 29.16
231 1 9.72 6.48 0.00
232 3 9.72 6.48 3.24
233 1 9.72 6.48 6.48
234 3 9.72 6.48 9.72
235 2 9.72 6.48 12.96
236 1 9.72 6.48 16.20
237 1 9.72 6.48 19.44
238 2 9.72 6.48 22.68
239 1 9.72 6.48 25.92
240 3 9.72 6.48 29.16
241 1 12.96 6.48 0.00
242 2 12.96 6.48 3.24
243 2 12.96 6.48 6.48
244 1 12.96 6.48 9.72
245 3 12.96 6.48 12.96
246 3 12.96 6.48 16.20
247 3 12.96 6.48 19.44
248 2 12.96 6.48 22.68
249 1 12.96 6.48 25.92
250 2 12.96 6.48 29.16
251 2 16.20 6.48 0.00
252 1 16.20 6.48 3.24
253 1 16.20 6.48 6.48
254 3 16.20 6.48 9.72
255 3 16.20 6.48 12.96
256 2 16.20 6.48 16.20
257 3 16.20 6.48 19.44
258 3 16.20 6.48 22.68
259 3 16.20 6.48 25.92
260 3 16.20 6.48 29.16
261 1 19.44 6.48 0.00
262 1 19.44 6.48 3.24
263 2 19.44 6.48 6.48
264 1 19.44 6.48 9.72
265 3 19.44 6.48 12.96
266 1 19.44 6.48 16.20
267 1 19.44 6.48 19.44
268 1 19.44 6.48 22.68
269 3 19.44 6.48 25.92
270 2 19.44 6.48 29.16
271 3 22.68 6.48 0.00
272 2 22.68 6.48 3.24
273 3 22.68 6.48 6.48
274 1 22.68 6.48 9.72
275 2 22.68 6.48 12.96
276 3 22.68 6.48 16.20
277 1 22.68 6.48 19.44
278 1 22.68 6.48 22.68
279 1 22.68 6.48 25.92
280 1 22.68 6.48 29.16
281 1 25.92 6.48 0.00
282 2 25.92 6.48 3.24
283 3 25.92 6.48 6.48
284 1 25.92 6.48 9.72
285 3 25.92 6.48 12.96
286 1 25.92 6.48 16.20
287 3 25.92 6.48 19.44
288 3 25.92 6.48 22.68
289 3 25.92 6.48 25.92
290 3 25.92 6.48 29.16
291 3 29.16 6.48 0.00
292 1 29.16 6.48 3.24
293 1 29.16 6.48 6.48
294 2 29.16 6.48 9.72
295 2 29.16 6.48 12.96
296 1 29.16 6.48 16.20
297 3 29.16 6.48 19.44
298 1 29.16 6.48 22.68
299 1 29.16 6.48 25.92
300 3 29.16 6.48 29.16
301 1 0.00 9.72 0.00
302 3 0.00 9.72 3.24
303 1 0.00 9.72 6.48
304 2 0.00 9.72 9.72
305 1 0.00 9.72 12.96
306 3 0.00 9.72 16.20
307 3 0.00 9.72 19.44
308 3 0.00 9.72 22.68
309 2 0.00 9.72 25.92
310 3 0.00 9.72 29.16
311 1 3.24 9.72 0.00
312 2 3.24 9.72 3.24
313 2 3.24 9.72 6.48
314 3 3.24 9.72 9.72
315 2 3.24 9.72 12.96
316 3 3.24 9.72 16.20
317 3 3.24 9.72 19.44
318 1 3.24 9.72 22.68
319 2 3.24 9.72 25.92
320 2 3.24 9.72 29.16
321 1 6.48 9.72 0.00
322 1 6.48 9.72 3.24
323 2 6.48 9.72 6.48
324 3 6.48 9.72 9.72
325 3 6.48 9.72 12.96
326 2 6.48 9.72 16.20
327 1 6.48 9.72 19.44
328 1 6.48 9.72 22.68
329 2 6.48 9.72 25.92
330 1 6.48 9.72 29.16
331 3 9.72 9.72 0.00
332 1 9.72 9.72 3.24
333 3 9.72 9.72 6.48
334 3 9.72 9.72 9.72
335 2 9.72 9.72 12.96
336 1 9.72 9.72 16.20
337 3 9.72 9.72 19.44
338 3 9.72 9.72 22.68
339 1 9.72 9.72 25.92
340 1 9.72 9.72 29.16
341 2 12.96 9.72 0.00
342 2 12.96 9.72 3.24
343 3 12.96 9.72 6.48
344 3 12.96 9.72 9.72
345 2 12.96 9.72 12.96
346 1 12.96 9.72 16.20
347 3 12.96 9.72 19.44
348 1 12.96 9.72 22.68
349 2 12.96 9.72 25.92
350 3 12.96 9.72 29.16
351 1 16.20 9.72 0.00
352 1 16.20 9.72 3.24
353 3 16.20 9.72 6.48
354 1 16.20 9.72 9.72
355 1 16.20 9.72 12.96
356 1 16.20 9.72 16.20
357 3 16.20 9.72 19.44
358 1 16.20 9.72 22.68
359 2 16.20 9.72 25.92
360 2 16.20 9.72 29.16
361 3 19.44 9.72 0.00
362 2 19.44 9.72 3.24
363 2 19.44 9.72 6.48
364 3 19.44 9.72 9.72
365 3 19.44 9.72 12.96
366 3 19.44 9.72 16.20
367 1 19.44 9.72 19.44
368 3 19.44 9.72 22.68
369 3 19.44 9.72 25.92
370 1 19.44 9.72 29.16
371 3 22.68 9.72 0.00
372 3 22.68 9.72 3.24
373 2 22.68 9.72 6.48
374 3 22.68 9.72 9.72
375 3 22.68 9.72 12.96
376 3 22.68 9.72 16.20
377 2 22.68 9.72 19.44
378 3 22.68 9.72 22.68
379 1 22.68 9.72 25.92
380 2 22.68 9.72 29.16
381 1 25.92 9.72 0.00
382 3 25.92 9.72 3.24
383 3 25.92 9.72 6.48
384 2 25.92 9.72 9.72
385 3 25.92 9.72 12.96
386 3 25.92 9.72 16.20
387 3 25.92 9.72 19.44
388 1 25.92 9.72 22.68
389 2 25.92 9.72 25.92
390 2 25.92 9.72 29.16
391 2 29.16 9.72 0.00
392 1 29.16 9.72 3.24
393 3 29.16 9.72 6.48
394 2 29.16 9.72 9.72
395 1 29.16 9.72 12.96
396 3 29.16 9.72 16.20
397 2 29.16 9.72 19.44
398 2 29.16 9.72 22.68
399 2 29.16 9.72 25.92
400 3 29.16 9.72 29.16
401 2 0.00 12.96 0.00
402 1 0.00 12.96 3.24
403 1 0.00 12.96 6.48
404 1 0.00 12.96 9.72
405 2 0.00 12.96 12.96
406 2 0.00 12.96 16.20
407 1 0.00 12.96 19.44
408 3 0.00 12.96 22.68
409 3 0.00 12.96 25.92
410 1 0.00 12.96 29.16
411 2 3.24 12.96 0.00
412 1 3.24 12.96 3.24
413 2 3.24 12.96 6.48
414 1 3.24 12.96 9.72
415 1 3.24 12.96 12.96
416 1 3.24 12.96 16.20
417 1 3.24 12.96 19.44
418 2 3.24 12.96 22.68
419 1 3.24 12.96 25.92
420 3 3.24 12.96 29.16
421 3 6.48 12.96 0.00
422 3 6.48 12.96 3.24
423 3 6.48 12.96 6.48
424 3 6.48 12.96 9.72
425 1 6.48 12.96 12.96
426 1 6.48 12.96 16.20
427 3 6.48 12.96 19.44
428 2 6.48 12.96 22.68
429 1 6.48 12.96 25.92
430 2 6.48 12.96 29.16
431 1 9.72 12.96 0.00
432 3 9.72 12.96 3.24
433 3 9.72 12.96 6.48
434 2 9.72 12.96 9.72
435 3 9.72 12.96 12.96
436 2 9.72 12.96 16.20
437 3 9.72 12.96 19.44
438 1 9.72 12.96 22.68
439 1 9.72 12.96 25.92
440 2 9.72 12.96 29.16
441 2 12.96 12.96 0.00
442 1 12.96 12.96 3.24
443 3 12.96 12.96 6.48
444 3 12.96 12.96 9.72
445 2 12.96 12.96 12.96
446 2 12.96 12.96 16.20
447 3 12.96 12.96 19.44
448 1 12.96 12.96 22.68
449 3 12.96 12.96 25.92
450 3 12.96 12.96 29.16
451 2 16.20 12.96 0.00
452 1 16.20 12.96 3.24
453 3 16.20 12.96 6.48
454 1 16.20 12.96 9.72
455 3 16.20 12.96 12.96
456 1 16.20 12.96 16.20
457 3 16.20 12.96 19.44
458 1 16.20 12.96 22.68
459 2 16.20 12.96 25.92
460 2 16.20 12.96 29.16
461 1 19.44 12.96 0.00
462 2 19.44 12.96 3.24
463 1 19.44 12.96 6.48
464 2 19.44 12.96 9.72
465 1 19.44 12.96 12.96
466 2 19.44 12.96 16.20
467 1 19.44 12.96 19.44
468 2 19.44 12.96 22.68
469 2 19.44 12.96 25.92
470 2 19.44 12.96 29.16
471 3 22.68 12.96 0.00
472 3 22.68 12.96 3.24
473 1 22.68 12.96 6.48
474 2 22.68 12.96 9.72
475 3 22.68 12.96 12.96
476 2 22.68 12.96 16.20
477 1 22.68 12.96 19.44
478 3 22.68 12.96 22.68
479 2 22.68 12.96 25.92
480 1 22.68 12.96 29.16
481 3 25.92 12.96 0.00
482 3 25.92 12.96 3.24
483 2 25.92 12.96 6.48
484 1 25.92 12.96 9.72
485 3 25.92 12.96 12.96
486 2 25.92 12.96 16.20
487 3 25.92 12.96 19.44
488 3 25.92 12.96 22.68
489 3 25.92 12.96 25.92
490 2 25.92 12.96 29.16
491 2 29.16 12.96 0.00
492 2 29.16 12.96 3.24
493 2 29.16 12.96 6.48
494 1 29.16 12.96 9.72
495 2 29.16 12.96 12.96
496 3 29.16 12.96 16.20
497 3 29.16 12.96 19.44
498 3 29.16 12.96 22.68
499 3 29.16 12.96 25.92
500 3 29.16 12.96 29.16
501 2 0.00 16.20 0.00
502 1 0.00 16.20 3.24
503 1 0.00 16.20 6.48
504 1 0.00 16.20 9.72
505 1 0.00 16.20 12.96
506 3 0.00 16.20 16.20
507 2 0.00 16.20 19.44
508 3 0.00 16.20 22.68
509 1 0.00 16.20 25.92
510 1 0.00 16.20 29.16
511 3 3.24 16.20 0.00
512 1 3.24 16.20 3.24
513 2 3.24 16.20 6.48
514 1 3.24 16.20 9.72
515 3 3.24 16.20 12.96
516 1 3.24 16.20 16.20
517 1 3.24 16.20 19.44
518 1 3.24 16.20 22.68
519 2 3.24 16.20 25.92
520 3 3.24 16.20 29.16
521 3 6.48 16.20 0.00
522 1 6.48 16.20 3.24
523 1 6.48 16.20 6.48
524 3 6.48 16.20 9.72
525 2 6.48 16.20 12.96
526 2 6.48 16.20 16.20
527 2 6.48 16.20 19.44
528 3 6.48 16.20 22.68
529 3 6.48 16.20 25.92
530 2 6.48 16.20 29.16
531 3 9.72 16.20 0.00
532 3 9.72 16.20 3.24
533 1 9.72 16.20 6.48
534 2 9.72 16.20 9.72
535 1 9.72 16.20 12.96
536 2 9.72 16.20 16.20
537 3 9.72 16.20 19.44
538 3 9.72 16.20 22.68
539 1 9.72 16.20 25.92
540 3 9.72 16.20 29.16
541 2 12.96 16.20 0.00
542 1 12.96 16.20 3.24
543 3 12.96 16.20 6.48
544 3 12.96 16.20 9.72
545 1 12.96 16.20 12.96
546 1 12.96 16.20 16.20
547 3 12.96 16.20 19.44
548 3 12.96 16.20 22.68
549 2 12.96 16.20 25.92
550 3 12.96 16.20 29.16
551 3 16.20 16.20 0.00
552 2 16.20 16.20 3.24
553 1 16.20 16.20 6.48
554 3 16.20 16.20 9.72
555 3 16.20 16.20 12.96
556 1 16.20 16.20 16.20
557 2 16.20 16.20 19.44
558 3 16.20 16.20 22.68
559 1 16.20 16.20 25.92
560 3 16.20 16.20 29.16
561 1 19.44 16.20 0.00
562 3 19.44 16.20 3.24
563 3 19.44 16.20 6.48
564 1 19.44 16.20 9.72
565 1 19.44 16.20 12.96
566 3 19.44 16.20 16.20
567 3 19.44 16.20 19.44
568 1 19.44 16.20 22.68
569 1 19.44 16.20 25.92
570 1 19.44 16.20 29.16
571 1 22.68 16.20 0.00
572 1 22.68 16.20 3.24
573 3 22.68 16.20 6.48
574 2 22.68 16.20 9.72
575 1 22.68 16.20 12.96
576 2 22.68 16.20 16.20
577 1 22.68 16.20 19.44
578 3 22.68 16.20 22.68
579 2 22.68 16.20 25.92
580 2 22.68 16.20 29.16
581 1 25.92 16.20 0.00
582 3 25.92 16.20 3.24
583 2 25.92 16.20 6.48
584 1 25.92 16.20 9.72
585 1 25.92 16.20 12.96
586 1 25.92 16.20 16.20
587 3 25.92 16.20 19.44
588 3 25.92 16.20 22.68
589 3 25.92 16.20 25.92
590 1 25.92 16.20 29.16
591 2 29.16 16.20 0.00
592 2 29.16 16.20 3.24
593 2 29.16 16.20 6.48
594 3 29.16 16.20 9.72
595 2 29.16 16.20 12.96
596 3 29.16 16.20 16.20
597 2 29.16 16.20 19.44
598 2 29.16 16.20 22.68
599 1 29.16 16.20 25.92
600 1 29.16 16.20 29.16
601 3 0.00 19.44 0.00
602 3 0.00 19.44 3.24
603 1 0.00 19.44 6.48
604 3 0.00 19.44 9.72
605 3 0.00 19.44 12.96
606 3 0.00 19.44 16.20
607 3 0.00 19.44 19.44
608 3 0.00 19.44 22.68
609 2 0.00 19.44 25.92
610 1 0.00 19.44 29.16
611 2 3.24 19.44 0.00
612 1 3.24 19.44 3.24
613 2 3.24 19.44 6.48
614 1 3.24 19.44 9.72
615 3 3.24 19.44 12.96
616 2 3.24 19.44 16.20
617 2 3.24 19.44 19.44
618 1 3.24 19.44 22.68
619 3 3.24 19.44 25.92
620 3 3.24 19.44 29.16
621 2 6.48 19.44 0.00
622 2 6.48 19.44 3.24
623 1 6.48 19.44 6.48
624 2 6.48 19.44 9.72
625 3 6.48 19.44 12.96
626 3 6.48 19.44 16.20
627 1 6.48 19.44 19.44
628 1 6.48 19.44 22.68
629 1 6.48 19.44 25.92
630 3 6.48 19.44 29.16
631 1 9.72 19.44 0.00
632 2 9.72 19.44 3.24
633 3 9.72 19.44 6.48
634 3 9.72 19.44 9.72
635 2 9.72 19.44 12.96
636 1 9.72 19.44 16.20
637 3 9.72 19.44 19.44
638 1 9.72 19.44 22.68
639 1 9.72 19.44 25.92
640 2 9.72 19.44 29.16
641 1 12.96 19.44 0.00
642 3 12.96 19.44 3.24
643 1 12.96 19.44 6.48
644 2 12.96 19.44 9.72
645 3 12.96 19.44 12.96
646 2 12.96 19.44 16.20
647 2 12.96 19.44 19.44
648 2 12.96 19.44 22.68
649 3 12.96 19.44 25.92
650 1 12.96 19.44 29.16
651 1 16.20 19.44 0.00
652 2 16.20 19.44 3.24
653 2 16.20 19.44 6.48
654 2 16.20 19.44 9.72
655 3 16.20 19.44 12.96
656 3 16.20 19.44 16.20
657 2 16.20 19.44 19.44
658 1 16.20 19.44 22.68
659 1 16.20 19.44 25.92
660 2 16.20 19.44 29.16
661 1 19.44 19.44 0.00
662 1 19.44 19.44 3.24
663 1 19.44 19.44 6.48
664 2 19.44 19.44 9.72
665 2 19.44 19.44 12.96
666 1 19.44 19.44 16.20
667 1 19.44 19.44 19.44
668 1 19.44 19.44 22.68
669 3 19.44 19.44 25.92
670 3 19.44 19.44 29.16
671 2 22.68 19.44 0.00
672 3 22.68 19.44 3.24
673 2 22.68 19.44 6.48
674 1 22.68 19.44 9.72
675 3 22.68 19.44 12.96
676 3 22.68 19.44 16.20
677 2 22.68 19.44 19.44
678 3 22.68 19.44 22.68
679 3 22.68 19.44 25.92
680 1 22.68 19.44 29.16
681 3 25.92 19.44 0.00
682 3 25.92 19.44 3.24
683 2 25.92 19.44 6.48
684 2 25.92 19.44 9.72
685 1 25.92 19.44 12.96
686 3 25.92 19.44 16.20
687 3 25.92 19.44 19.44
688 3 25.92 19.44 22.68
689 1 25.92 19.44 25.92
690 1 25.92 19.44 29.16
691 1 29.16 19.44 0.00
692 1 29.16 19.44 3.24
693 2 29.16 19.44 6.48
694 3 29.16 19.44 9.72
695 3 29.16 19.44 12.96
696 1 29.16 19.44 16.20
697 3 29.16 19.44 19.44
698 1 29.16 19.44 22.68
699 2 29.16 19.44 25.92
700 1 29.16 19.44 29.16
701 1 0.00 22.68 0.00
702 3 0.00 22.68 3.24
703 3 0.00 22.68 6.48
704 2 0.00 22.68 9.72
705 3 0.00 22.68 12.96
706 1 0.00 22.68 16.20
707 3 0.00 22.68 19.44
708 2 0.00 22.68 22.68
709 1 0.00 22.68 25.92
710 1 0.00 22.68 29.16
711 3 3.24 22.68 0.00
712 3 3.24 22.68 3.24
713 3 3.24 22.68 6.48
714 3 3.24 22.68 9.72
715 3 3.24 22.68 12.96
716 1 3.24 22.68 16.20
717 2 3.24 22.68 19.44
718 2 3.24 22.68 22.68
719 3 3.24 22.68 25.92
720 3 3.24 22.68 29.16
721 1 6.48 22.68 0.00
722 1 6.48 22.68 3.24
723 3 6.48 22.68 6.48
724 2 6.48 22.68 9.72
725 2 6.48 22.68 12.96
726 2 6.48 22.68 16.20
727 3 6.48 22.68 19.44
728 1 6.48 22.68 22.68
729 3 6.48 22.68 25.92
730 1 6.48 22.68 29.16
731 1 9.72 22.68 0.00
732 1 9.72 22.68 3.24
733 3 9.72 22.68 6.48
734 2 9.72 22.68 9.72
735 3 9.72 22.68 12.96
736 2 9.72 22.68 16.20
737 1 9.72 22.68 19.44
738 2 9.72 22.68 22.68
739 3 9.72 22.68 25.92
740 3 9.72 22.68 29.16
741 1 12.96 22.68 0.00
742 3 12.96 22.68 3.24
743 3 12.96 22.68 6.48
744 3 12.96 22.68 9.72
745 1 12.96 22.68 12.96
746 3 12.96 22.68 16.20
747 1 12.96 22.68 19.44
748 1 12.96 22.68 22.68
749 3 12.96 22.68 25.92
750 2 12.96 22.68 29.16
751 2 16.20 22.68 0.00
752 2 16.20 22.68 3.24
753 3 16.20 22.68 6.48
754 3 16.20 22.68 9.72
755 2 16.20 22.68 12.96
756 2 16.20 22.68 16.20
757 3 16.20 22.68 19.44
758 2 16.20 22.68 22.68
759 2 16.20 22.68 25.92
760 3 16.20 22.68 29.16
761 3 19.44 22.68 0.00
762 1 19.44 22.68 3.24
763 1 19.44 22.68 6.48
764 2 19.44 22.68 9.72
765 1 19.44 22.68 12.96
766 3 19.44 22.68 16.20
767 3 19.44 22.68 19.44
768 3 19.44 22.68 22.68
769 2 19.44 22.68 25.92
770 3 19.44 22.68 29.16
771 3 22.68 22.68 0.00
772 2 22.68 22.68 3.24
773 2 22.68 22.68 6.48
774 3 22.68 22.68 9.72
775 2 22.68 22.68 12.96
776 1 22.68 22.68 16.20
777 2 22.68 22.68 19.44
778 1 22.68 22.68 22.68
779 2 22.68 22.68 25.92
780 1 22.68 22.68 29.16
781 2 25.92 22.68 0.00
782 3 25.92 22.68 3.24
783 2 25.92 22.68 6.48
784 2 25.92 22.68 9.72
785 2 25.92 22.68 12.96
786 1 25.92 22.68 16.20
787 2 25.92 22.68 19.44
788 1 25.92 22.68 22.68
789 2 25.92 22.68 25.92
790 3 25.92 22.68 29.16
791 1 29.16 22.68 0.00
792 1 29.16 22.68 3.24
793 3 29.16 22.68 6.48
794 2 29.16 22.68 9.72
795 2 29.16 22.68 12.96
796 1 29.16 22.68 16.20
797 1 29.16 22.68 19.44
798 2 29.16 22.68 22.68
799 3 29.16 22.68 25.92
800 1 29.16 22.68 29.16
801 3 0.00 25.92 0.00
802 3 0.00 25.92 3.24
803 2 0.00 25.92 6.48
804 3 0.00 25.92 9.72
805 1 0.00 25.92 12.96
806 3 0.00 25.92 16.20
807 3 0.00 25.92 19.44
808 2 0.00 25.92 22.68
809 3 0.00 25.92 25.92
810 1 0.00 25.92 29.16
811 1 3.24 25.92 0.00
812 1 3.24 25.92 3.24
813 1 3.24 25.92 6.48
814 2 3.24 25.92 9.72
815 3 3.24 25.92 12.96
816 3 3.24 25.92 16.20
817 1 3.24 25.92 19.44
818 1 3.24 25.92 22.68
819 3 3.24 25.92 25.92
820 3 3.24 25.92 29.16
821 2 6.48 25.92 0.00
822 1 6.48 25.92 3.24
823 2 6.48 25.92 6.48
824 2 6.48 25.92 9.72
825 3 6.48 25.92 12.96
826 3 6.48 25.92 16.20
827 1 6.48 25.92 19.44
828 3 6.48 25.92 22.68
829 1 6.48 25.92 25.92
830 3 6.48 25.92 29.16
831 1 9.72 25.92 0.00
832 2 9.72 25.92 3.24
833 1 9.72 25.92 6.48
834 1 9.72 25.92 9.72
835 2 9.72 25.92 12.96
836 2 9.72 25.92 16.20
837 2 9.72 25.92 19.44
838 1 9.72 25.92 22.68
839 2 9.72 25.92 25.92
840 1 9.72 25.92 29.16
841 2 12.96 25.92 0.00
842 3 12.96 25.92 3.24
843 1 12.96 25.92 6.48
844 1 12.96 25.92 9.72
845 1 12.96 25.92 12.96
846 2 12.96 25.92 16.20
847 1 12.96 25.92 19.44
848 1 12.96 25.92 22.68
849 1 12.96 25.92 25.92
850 2 12.96 25.92 29.16
851 2 16.20 25.92 0.00
852 1 16.20 25.92 3.24
853 3 16.20 25.92 6.48
854 2 16.20 25.92 9.72
855 3 16.20 25.92 12.96
856 1 16.20 25.92 16.20
857 3 16.20 25.92 19.44
858 1 16.20 25.92 22.68
859 3 16.20 25.92 25.92
860 3 16.20 25.92 29.16
861 3 19.44 25.92 0.00
862 2 19.44 25.92 3.24
863 1 19.44 25.92 6.48
864 3 19.44 25.92 9.72
865 3 19.44 25.92 12.96
866 2 19.44 25.92 16.20
867 2 19.44 25.92 19.44
868 3 19.44 25.92 22.68
869 1 19.44 25.92 25.92
870 2 19.44 25.92 29.16
871 2 22.68 25.92 0.00
872 2 22.68 25.92 3.24
873 3 22.68 25.92 6.48
874 2 22.68 25.92 9.72
875 3 22.68 25.92 12.96
876 1 22.68 25.92 16.20
877 1 22.68 25.92 19.44
878 2 22.68 25.92 22.68
879 2 22.68 25.92 25.92
880 2 22.68 25.92 29.16
881 3 25.92 25.92 0.00
882 1 25.92 25.92 3.24
883 2 25.92 25.92 6.48
884 1 25.92 25.92 9.72
885 2 25.92 25.92 12.96
886 1 25.92 25.92 16.20
887 3 25.92 25.92 19.44
888 3 25.92 25.92 22.68
889 1 25.92 25.92 25.92
890 3 25.92 25.92 29.16
891 3 29.16 25.92 0.00
892 1 29.16 25.92 3.24
893 3 29.16 25.92 6.48
894 2 29.16 25.92 9.72
895 1 29.16 25.92 12.96
896 2 29.16 25.92 16.20
897 2 29.16 25.92 19.44
898 2 29.16 25.92 22.68
899 2 29.16 25.92 25.92
900 3 29.16 25.92 29.16
901 1 0.00 29.16 0.00
902 3 0.00 29.16 3.24
903 3 0.00 29.16 6.48
904 1 0.00 29.16 9.72
905 2 0.00 29.16 12.96
906 1 0.00 29.16 16.20
907 2 0.00 29.16 19.44
908 3 0.00 29.16 22.68
909 1 0.00 29.16 25.92
910 2 0.00 29.16 29.16
911 1 3.24 29.16 0.00
912 3 3.24 29.16 3.24
913 2 3.24 29.16 6.48
914 1 3.24 29.16 9.72
915 2 3.24 29.16 12.96
916 1 3.24 29.16 16.20
917 1 3.24 29.16 19.44
918 2 3.24 29.16 22.68
919 2 3.24 29.16 25.92
920 1 3.24 29.16 29.16
921 1 6.48 29.16 0.00
922 2 6.48 29.16 3.24
923 1 6.48 29.16 6.48
924 2 6.48 29.16 9.72
925 3 6.48 29.16 12.96
926 1 6.48 29.16 16.20
927 3 6.48 29.16 19.44
928 3 6.48 29.16 22.68
929 3 6.48 29.16 25.92
930 2 6.48 29.16 29.16
931 3 9.72 29.16 0.00
932 2 9.72 29.16 3.24
933 2 9.72 29.16 6.48
934 1 9.72 29.16 9.72
935 1 9.72 29.16 12.96
936 3 9.72 29.16 16.20
937 2 9.72 29.16 19.44
938 2 9.72 29.16 22.68
939 3 9.72 29.16 25.92
940 1 9.72 29.16 29.16
941 3 12.96 29.16 0.00
942 1 12.96 29.16 3.24
943 2 12.96 29.16 6.48
944 1 12.96 29.16 9.72
945 3 12.96 29.16 12.96
946 2 12.96 29.16 16.20
947 2 12.96 29.16 19.44
948 2 12.96 29.16 22.68
949 3 12.96 29.16 25.92
950 1 12.96 29.16 29.16
951 1 16.20 29.16 0.00
952 2 16.20 29.16 3.24
953 3 16.20 29.16 6.48
954 3 16.20 29.16 9.72
955 3 16.20 29.16 12.96
956 1 16.20 29.16 16.20
957 1 16.20 29.16 19.44
958 3 16.20 29.16 22.68
959 3 16.20 29.16 25.92
960 2 16.20 29.16 29.16
961 3 19.44 29.16 0.00
962 1 19.44 29.16 3.24
963 1 19.44 29.16 6.48
964 2 19.44 29.16 9.72
965 2 19.44 29.16 12.96
966 2 19.44 29.16 16.20
967 2 19.44 29.16 19.44
968 1 19.44 29.16 22.68
969 1 19.44 29.16 25.92
970 1 19.44 29.16 29.16
971 1 22.68 29.16 0.00
972 2 22.68 29.16 3.24
973 1 22.68 29.16 6.48
974 1 22.68 29.16 9.72
975 3 22.68 29.16 12.96
976 3 22.68 29.16 16.20
977 1 22.68 29.16 19.44
978 1 22.68 29.16 22.68
979 3 22.68 29.16 25.92
980 2 22.68 29.16 29.16
981 1 25.92 29.16 0.00
982 3 25.92 29.16 3.24
983 2 25.92 29.16 6.48
984 3 25.92 29.16 9.72
985 1 25.92 29.16 12.96
986 3 25.92 29.16 16.20
987 2 25.92 29.16 19.44
988 1 25.92 29.16 22.68
989 1 25.92 29.16 25.92
990 2 25.92 29.16 29.16
991 2 29.16 29.16 0.00
992 2 29.16 29.16 3.24
993 2 29.16 29.16 6.48
994 1 29.16 29.16 9.72
995 3 29.16 29.16 12.96
996 2 29.16 29.16 16.20
997 3 29.16 29.16 19.44
998 3 29.16 29.16 22.68
999 1 29.16 29.16 25.92
1000 2 29.16 29.16 29.16
1001 3 1.62 1.62 1.62
1002 1 1.62 1.62 4.86
1003 3 1.62 1.62 8.10
1004 2 1.62 1.62 11.34
1005 3 1.62 1.62 14.58
1006 3 1.62 1.62 17.82
1007 1 1.62 1.62 21.06
1008 1 1.62 1.62 24.30
1009 2 1.62 1.62 27.54
1010 1 1.62 1.62 30.78
1011 2 4.86 1.62 1.62
1012 3 4.86 1.62 4.86
1013 2 4.86 1.62 8.10
1014 3 4.86 1.62 11.34
1015 3 4.86 1.62 14.58
1016 1 4.86 1.62 17.82
1017 2 4.86 1.62 21.06
1018 2 4.86 1.62 24.30
1019 3 4.86 1.62 27.54
1020 1 4.86 1.62 30.78
1021 3 8.10 1.62 1.62
1022 2 8.10 1.62 4.86
1023 2 8.10 1.62 8.10
1024 3 8.10 1.62 11.34
1025 1 8.10 1.62 14.58
1026 3 8.10 1.62 17.82
1027 1 8.10 1.62 21.06
1028 3 8.10 1.62 24.30
1029 1 8.10 1.62 27.54
1030 3 8.10 1.62 30.78
1031 2 11.34 1.62 1.62
1032 1 11.34 1.62 4.86
1033 1 11.34 1.62 8.10
1034 1 11.34 1.62 11.34
1035 1 11.34 1.62 14.58
1036 1 11.34 1.62 17.82
1037 2 11.34 1.62 21.06
1038 2 11.34 1.62 24.30
1039 2 11.34 1.62 27.54
1040 1 11.34 1.62 30.78
1041 2 14.58 1.62 1.62
1042 3 14.58 1.62 4.86
1043 2 14.58 1.62 8.10
1044 3 14.58 1.62 11.34
1045 1 14.58 1.62 14.58
1046 1 14.58 1.62 17.82
1047 2 14.58 1.62 21.06
1048 2 14.58 1.62 24.30
1049 3 14.58 1.62 27.54
1050 1 14.58 1.62 30.78
1051 2 17.82 1.62 1.62
1052 2 17.82 1.62 4.86
1053 2 17.82 1.62 8.10
1054 3 17.82 1.62 11.34
1055 3 17.82 1.62 14.58
1056 1 17.82 1.62 17.82
1057 3 17.82 1.62 21.06
1058 1 17.82 1.62 24.30
1059 3 17.82 1.62 27.54
1060 1 17.82 1.62 30.78
1061 3 21.06 1.62 1.62
1062 1 21.06 1.62 4.86
1063 2 21.06 1.62 8.10
1064 1 21.06 1.62 11.34
1065 1 21.06 1.62 14.58
1066 2 21.06 1.62 17.82
1067 3 21.06 1.62 21.06
1068 2 21.06 1.62 24.30
1069 1 21.06 1.62 27.54
1070 2 21.06 1.62 30.78
1071 2 24.30 1.62 1.62
1072 2 24.30 1.62 4.86
1073 3 24.30 1.62 8.10
1074 2 24.30 1.62 11.34
1075 3 24.30 1.62 14.58
1076 2 24.30 1.62 17.82
1077 1 24.30 1.62 21.06
1078 2 24.30 1.62 24.30
1079 2 24.30 1.62 27.54
1080 3 24.30 1.62 30.78
1081 3 27.54 1.62 1.62
1082 1 27.54 1.62 4.86
1083 1 27.54 1.62 8.10
1084 1 27.54 1.62 11.34
1085 2 27.54 1.62 14.58
1086 3 27.54 1.62 17.82
1087 2 27.54 1.62 21.06
1088 1 27.54 1.62 24.30
1089 3 27.54 1.62 27.54
1090 3 27.54 1.62 30.78
1091 3 30.78 1.62 1.62
1092 3 30.78 1.62 4.86
1093 1 30.78 1.62 8.10
1094 1 30.78 1.62 11.34
1095 2 30.78 1.62 14.58
1096 1 30.78 1.62 17.82
1097 2 30.78 1.62 21.06
1098 2 30.78 1.62 24.30
1099 3 30.78 1.62 27.54
1100 2 30.78 1.62 30.78
1101 1 1.62 4.86 1.62
1102 2 1.62 4.86 4.86
1103 3 1.62 4.86 8.10
1104 1 1.62 4.86 11.34
1105 3 1.62 4.86 14.58
1106 3 1.62 4.86 17.82
1107 1 1.62 4.86 21.06
1108 3 1.62 4.86 24.30
1109 3 1.62 4.86 27.54
1110 1 1.62 4.86 30.78
1111 3 4.86 4.86 1.62
1112 1 4.86 4.86 4.86
1113 2 4.86 4.86 8.10
1114 3 4.86 4.86 11.34
1115 2 4.86 4.86 14.58
1116 1 4.86 4.86 17.82
1117 3 4.86 4.86 21.06
1118 3 4.86 4.86 24.30
1119 2 4.86 4.86 27.54
1120 1 4.86 4.86 30.78
1121 1 8.10 4.86 1.62
1122 3 8.10 4.86 4.86
1123 1 8.10 4.86 8.10
1124 1 8.10 4.86 11.34
1125 1 8.10 4.86 14.58
1126 1 8.10 4.86 17.82
1127 3 8.10 4.86 21.06
1128 3 8.10 4.86 24.30
1129 1 8.10 4.86 27.54
1130 3 8.10 4.86 30.78
1131 1 11.34 4.86 1.62
1132 2 11.34 4.86 4.86
1133 3 11.34 4.86 8.10
1134 1 11.34 4.86 11.34
1135 3 11.34 4.86 14.58
1136 2 11.34 4.86 17.82
1137 2 11.34 4.86 21.06
1138 3 11.34 4.86 24.30
1139 3 11.34 4.86 27.54
1140 2 11.34 4.86 30.78
1141 2 14.58 4.86 1.62
1142 2 14.58 4.86 4.86
1143 3 14.58 4.86 8.10
1144 1 14.58 4.86 11.34
1145 3 14.58 4.86 14.58
1146 1 14.58 4.86 17.82
1147 3 14.58 4.86 21.06
1148 3 14.58 4.86 24.30
1149 1 14.58 4.86 27.54
1150 2 14.58 4.86 30.78
1151 1 17.82 4.86 1.62
1152 3 17.82 4.86 4.86
1153 3 17.82 4.86 8.10
1154 1 17.82 4.86 11.34
1155 3 17.82 4.86 14.58
1156 1 17.82 4.86 17.82
1157 2 17.82 4.86 21.06
1158 1 17.82 4.86 24.30
1159 3 17.82 4.86 27.54
1160 2 17.82 4.86 30.78
1161 3 21.06 4.86 1.62
1162 3 21.06 4.86 4.86
1163 3 21.06 4.86 8.10
1164 1 21.06 4.86 11.34
1165 3 21.06 4.86 14.58
1166 1 21.06 4.86 17.82
1167 1 21.06 4.86 21.06
1168 3 21.06 4.86 24.30
1169 1 21.06 4.86 27.54
1170 2 21.06 4.86 30.78
1171 3 24.30 4.86 1.62
1172 1 24.30 4.86 4.86
1173 3 24.30 4.86 8.10
1174 1 24.30 4.86 11.34
1175 3 24.30 4.86 14.58
1176 1 24.30 4.86 17.82
1177 1 24.30 4.86 21.06
1178 1 24.30 4.86 24.30
1179 3 24.30 4.86 27.54
1180 1 24.30 4.86 30.78
1181 2 27.54 4.86 1.62
1182 3 27.54 4.86 4.86
1183 1 27.54 4.86 8.10
1184 1 27.54 4.86 11.34
1185 2 27.54 4.86 14.58
1186 1 27.54 4.86 17.82
1187 3 27.54 4.86 21.06
1188 2 27.54 4.86 24.30
1189 1 27.54 4.86 27.54
1190 2 27.54 4.86 30.78
1191 2 30.78 4.86 1.62
1192 1 30.78 4.86 4.86
1193 2 30.78 4.86 8.10
1194 1 30.78 4.86 11.34
1195 1 30.78 4.86 14.58
1196 3 30.78 4.86 17.82
1197 1 30.78 4.86 21.06
1198 1 30.78 4.86 24.30
1199 3 30.78 4.86 27.54
1200 3 30.78 4.86 30.78
1201 3 1.62 8.10 1.62
1202 2 1.62 8.10 4.86
1203 1 1.62 8.10 8.10
1204 2 1.62 8.10 11.34
1205 3 1.62 8.10 14.58
1206 2 1.62 8.10 17.82
1207 3 1.62 8.10 21.06
1208 1 1.62 8.10 24.30
1209 1 1.62 8.10 27.54
1210 2 1.62 8.10 30.78
1211 1 4.86 8.10 1.62
1212 3 4.86 8.10 4.86
1213 2 4.86 8.10 8.10
1214 2 4.86 8.10 11.34
1215 3 4.86 8.10 14.58
1216 2 4.86 8.10 17.82
1217 3 4.86 8.10 21.06
1218 1 4.86 8.10 24.30
1219 2 4.86 8.10 27.54
1220 1 4.86 8.10 30.78
1221 1 8.10 8.10 1.62
1222 1 8.10 8.10 4.86
1223 1 8.10 8.10 8.10
1224 2 8.10 8.10 11.34
1225 1 8.10 8.10 14.58
1226 2 8.10 8.10 17.82
1227 2 8.10 8.10 21.06
1228 2 8.10 8.10 24.30
1229 3 8.10 8.10 27.54
1230 3 8.10 8.10 30.78
1231 1 11.34 8.10 1.62
1232 3 11.34 8.10 4.86
1233 2 11.34 8.10 8.10
1234 1 11.34 8.10 11.34
1235 2 11.34 8.10 14.58
1236 3 11.34 8.10 17.82
1237 3 11.34 8.10 21.06
1238 1 11.34 8.10 24.30
1239 2 11.34 8.10 27.54
1240 2 11.34 8.10 30.78
1241 2 14.58 8.10 1.62
1242 2 14.58 8.10 4.86
1243 2 14.58 8.10 8.10
1244 1 14.58 8.10 11.34
1245 3 14.58 8.10 14.58
1246 2 14.58 8.10 17.82
1247 1 14.58 8.10 21.06
1248 3 14.58 8.10 24.30
1249 1 14.58 8.10 27.54
1250 2 14.58 8.10 30.78
1251 1 17.82 8.10 1.62
1252 2 17.82 8.10 4.86
1253 2 17.82 8.10 8.10
1254 2 17.82 8.10 11.34
1255 1 17.82 8.10 14.58
1256 2 17.82 8.10 17.82
1257 2 17.82 8.10 21.06
1258 3 17.82 8.10 24.30
1259 2 17.82 8.10 27.54
1260 2 17.82 8.10 30.78
1261 1 21.06 8.10 1.62
1262 2 21.06 8.10 4.86
1263 1 21.06 8.10 8.10
1264 3 21.06 8.10 11.34
1265 3 21.06 8.10 14.58
1266 2 21.06 8.10 17.82
1267 3 21.06 8.10 21.06
1268 2 21.06 8.10 24.30
1269 2 21.06 8.10 27.54
1270 3 21.06 8.10 30.78
1271 1 24.30 8.10 1.62
1272 2 24.30 8.10 4.86
1273 2 24.30 8.10 8.10
1274 2 24.30 8.10 11.34
1275 2 24.30 8.10 14.58
1276 3 24.30 8.10 17.82
1277 2 24.30 8.10 21.06
1278 2 24.30 8.10 24.30
1279 2 24.30 8.10 27.54
1280 2 24.30 8.10 30.78
1281 2 27.54 8.10 1.62
1282 3 27.54 8.10 4.86
1283 1 27.54 8.10 8.10
1284 1 27.54 8.10 11.34
1285 1 27.54 8.10 14.58
1286 2 27.54 8.10 17.82
1287 3 27.54 8.10 21.06
1288 3 27.54 8.10 24.30
1289 2 27.54 8.10 27.54
1290 2 27.54 8.10 30.78
1291 1 30.78 8.10 1.62
1292 2 30.78 8.10 4.86
1293 2 30.78 8.10 8.10
1294 3 30.78 8.10 11.34
1295 1 30.78 8.10 14.58
1296 2 30.78 8.10 17.82
1297 3 30.78 8.10 21.06
1298 2 30.78 8.10 24.30
1299 3 30.78 8.10 27.54
1300 1 30.78 8.10 30.78
1301 1 1.62 11.34 1.62
1302 3 1.62 11.34 4.86
1303 3 1.62 11.34 8.10
1304 3 1.62 11.34 11.34
1305 3 1.62 11.34 14.58
1306 1 1.62 11.34 17.82
1307 3 1.62 11.34 21.06