ITEM: TIMESTEP
0
ITEM: NUMBER OF ATOMS
16000
ITEM: BOX BOUNDS pp pp pp
0 64.80
0 64.80
0 64.80
ITEM: ATOMS id type x y z
1 1 0.00 0.00 0.00
2 1 0.00 0.00 3.24
3 3 0.00 0.00 6.48
4 1 0.00 0.00 9.72
5 1 0.00 0.00 12.96
6 1 0.00 0.00 16.20
7 3 0.00 0.00 19.44
8 1 0.00 0.00 22.68
9 3 0.00 0.00 25.92
10 2 0.00 0.00 29.16
11 3 0.00 0.00 32.40
12 1 0.00 0.00 35.64
13 1 0.00 0.00 38.88
14 3 0.00 0.00 42.12
15 1 0.00 0.00 45.36
16 1 0.00 0.00 48.60
17 3 0.00 0.00 51.84
18 1 0.00 0.00 55.08
19 1 0.00 0.00 58.32
20 3 0.00 0.00 61.56
21 1 3.24 0.00 0.00
22 2 3.24 0.00 3.24
23 1 3.24 0.00 6.48
24 2 3.24 0.00 9.72
25 1 3.24 0.00 12.96
26 1 3.24 0.00 16.20
27 2 3.24 0.00 19.44
28 2 3.24 0.00 22.68
29 3 3.24 0.00 25.92
30 1 3.24 0.00 29.16
31 1 3.24 0.00 32.40
32 3 3.24 0.00 35.64
33 3 3.24 0.00 38.88
34 1 3.24 0.00 42.12
35 2 3.24 0.00 45.36
36 2 3.24 0.00 48.60
37 3 3.24 0.00 51.84
38 2 3.24 0.00 55.08
39 2 3.24 0.00 58.32
40 1 3.24 0.00 61.56
41 3 6.48 0.00 0.00
42 3 6.48 0.00 3.24
43 1 6.48 0.00 6.48
44 2 6.48 0.00 9.72
45 1 6.48 0.00 12.96
46 3 6.48 0.00 16.20
47 3 6.48 0.00 19.44
48 3 6.48 0.00 22.68
49 2 6.48 0.00 25.92
50 2 6.48 0.00 29.16
51 2 6.48 0.00 32.40
52 2 6.48 0.00 35.64
53 3 6.48 0.00 38.88
54 1 6.48 0.00 42.12
55 1 6.48 0.00 45.36
56 2 6.48 0.00 48.60
57 1 6.48 0.00 51.84
58 2 6.48 0.00 55.08
59 3 6.48 0.00 58.32
60 2 6.48 0.00 61.56
61 1 9.72 0.00 0.00
62 2 9.72 0.00 3.24
63 3 9.72 0.00 6.48
64 3 9.72 0.00 9.72
65 3 9.72 0.00 12.96
66 3 9.72 0.00 16.20
67 3 9.72 0.00 19.44
68 2 9.72 0.00 22.68
69 2 9.72 0.00 25.92
70 1 9.72 0.00 29.16
71 3 9.72 0.00 32.40
72 2 9.72 0.00 35.64
73 3 9.72 0.00 38.88
74 3 9.72 0.00 42.12
75 2 9.72 0.00 45.36
76 1 9.72 0.00 48.60
77 1 9.72 0.00 51.84
78 3 9.72 0.00 55.08
79 2 9.72 0.00 58.32
80 2 9.72 0.00 61.56
81 1 12.96 0.00 0.00
82 1 12.96 0.00 3.24
83 2 12.96 0.00 6.48
84 2 12.96 0.00 9.72
85 2 12.96 0.00 12.96
86 2 12.96 0.00 16.20
87 2 12.96 0.00 19.44
88 1 12.96 0.00 22.68
89 1 12.96 0.00 25.92
90 3 12.96 0.00 29.16
91 2 12.96 0.00 32.40
92 2 12.96 0.00 35.64
93 2 12.96 0.00 38.88
94 1 12.96 0.00 42.12
95 2 12.96 0.00 45.36
96 2 12.96 0.00 48.60
97 2 12.96 0.00 51.84
98 1 12.96 0.00 55.08
99 2 12.96 0.00 58.32
100 3 12.96 0.00 61.56
101 2 16.20 0.00 0.00
102 2 16.20 0.00 3.24
103 3 16.20 0.00 6.48
104 3 16.20 0.00 9.72
105 2 16.20 0.00 12.96
106 2 16.20 0.00 16.20
107 2 16.20 0.00 19.44
108 1 16.20 0.00 22.68
109 3 16.20 0.00 25.92
110 2 16.20 0.00 29.16
111 2 16.20 0.00 32.40
112 1 16.20 0.00 35.64
113 1 16.20 0.00 38.88
114 3 16.20 0.00 42.12
115 3 16.20 0.00 45.36
116 3 16.20 0.00 48.60
117 3 16.20 0.00 51.84
118 2 16.20 0.00 55.08
119 2 16.20 0.00 58.32
120 1 16.20 0.00 61.56
121 1 19.44 0.00 0.00
122 1 19.44 0.00 3.24
123 1 19.44 0.00 6.48
124 3 19.44 0.00 9.72
125 3 19.44 0.00 12.96
126 2 19.44 0.00 16.20
127 3 19.44 0.00 19.44
128 2 19.44 0.00 22.68
129 3 19.44 0.00 25.92
130 2 19.44 0.00 29.16
131 2 19.44 0.00 32.40
132 2 19.44 0.00 35.64
133 2 19.44 0.00 38.88
134 3 19.44 0.00 42.12
135 1 19.44 0.00 45.36
136 1 19.44 0.00 48.60
137 3 19.44 0.00 51.84
138 1 19.44 0.00 55.08
139 3 19.44 0.00 58.32
140 2 19.44 0.00 61.56
141 2 22.68 0.00 0.00
142 2 22.68 0.00 3.24
143 3 22.68 0.00 6.48
144 2 22.68 0.00 9.72
145 3 22.68 0.00 12.96
146 1 22.68 0.00 16.20
147 2 22.68 0.00 19.44
148 1 22.68 0.00 22.68
149 3 22.68 0.00 25.92
150 2 22.68 0.00 29.16
151 1 22.68 0.00 32.40
152 2 22.68 0.00 35.64
153 3 22.68 0.00 38.88
154 3 22.68 0.00 42.12
155 2 22.68 0.00 45.36
156 3 22.68 0.00 48.60
157 3 22.68 0.00 51.84
158 1 22.68 0.00 55.08
159 2 22.68 0.00 58.32
160 3 22.68 0.00 61.56
161 1 25.92 0.00 0.00
162 1 25.92 0.00 3.24
163 3 25.92 0.00 6.48
164 2 25.92 0.00 9.72
165 3 25.92 0.00 12.96
166 1 25.92 0.00 16.20
167 2 25.92 0.00 19.44
168 2 25.92 0.00 22.68
169 1 25.92 0.00 25.92
170 3 25.92 0.00 29.16
171 3 25.92 0.00 32.40
172 3 25.92 0.00 35.64
173 2 25.92 0.00 38.88
174 3 25.92 0.00 42.12
175 2 25.92 0.00 45.36
176 3 25.92 0.00 48.60
177 2 25.92 0.00 51.84
178 1 25.92 0.00 55.08
179 2 25.92 0.00 58.32
180 2 25.92 0.00 61.56
181 2 29.16 0.00 0.00
182 1 29.16 0.00 3.24
183 1 29.16 0.00 6.48
184 1 29.16 0.00 9.72
185 2 29.16 0.00 12.96
186 2 29.16 0.00 16.20
187 1 29.16 0.00 19.44
188 3 29.16 0.00 22.68
189 2 29.16 0.00 25.92
190 3 29.16 0.00 29.16
191 2 29.16 0.00 32.40
192 2 29.16 0.00 35.64
193 1 29.16 0.00 38.88
194 2 29.16 0.00 42.12
195 1 29.16 0.00 45.36
196 3 29.16 0.00 48.60
197 3 29.16 0.00 51.84
198 2 29.16 0.00 55.08
199 3 29.16 0.00 58.32
200 2 29.16 0.00 61.56
201 1 32.40 0.00 0.00
202 2 32.40 0.00 3.24
203 3 32.40 0.00 6.48
204 3 32.40 0.00 9.72
205 1 32.40 0.00 12.96
206 3 32.40 0.00 16.20
207 1 32.40 0.00 19.44
208 3 32.40 0.00 22.68
209 1 32.40 0.00 25.92
210 1 32.40 0.00 29.16
211 1 32.40 0.00 32.40
212 2 32.40 0.00 35.64
213 1 32.40 0.00 38.88
214 1 32.40 0.00 42.12
215 1 32.40 0.00 45.36
216 2 32.40 0.00 48.60
217 1 32.40 0.00 51.84
218 3 32.40 0.00 55.08
219 2 32.40 0.00 58.32
220 2 32.40 0.00 61.56
221 3 35.64 0.00 0.00
222 1 35.64 0.00 3.24
223 3 35.64 0.00 6.48
224 2 35.64 0.00 9.72
225 3 35.64 0.00 12.96
226 1 35.64 0.00 16.20
227 2 35.64 0.00 19.44
228 3 35.64 0.00 22.68
229 2 35.64 0.00 25.92
230 3 35.64 0.00 29.16
231 2 35.64 0.00 32.40
232 2 35.64 0.00 35.64
233 3 35.64 0.00 38.88
234 3 35.64 0.00 42.12
235 3 35.64 0.00 45.36
236 3 35.64 0.00 48.60
237 2 35.64 0.00 51.84
238 2 35.64 0.00 55.08
239 3 35.64 0.00 58.32
240 1 35.64 0.00 61.56
241 1 38.88 0.00 0.00
242 3 38.88 0.00 3.24
243 3 38.88 0.00 6.48
244 3 38.88 0.00 9.72
245 3 38.88 0.00 12.96
246 1 38.88 0.00 16.20
247 2 38.88 0.00 19.44
248 1 38.88 0.00 22.68
249 2 38.88 0.00 25.92
250 3 38.88 0.00 29.16
251 1 38.88 0.00 32.40
252 1 38.88 0.00 35.64
253 2 38.88 0.00 38.88
254 1 38.88 0.00 42.12
255 1 38.88 0.00 45.36
256 3 38.88 0.00 48.60
257 1 38.88 0.00 51.84
258 1 38.88 0.00 55.08
259 2 38.88 0.00 58.32
260 2 38.88 0.00 61.56
261 2 42.12 0.00 0.00
262 3 42.12 0.00 3.24
263 1 42.12 0.00 6.48
264 3 42.12 0.00 9.72
265 2 42.12 0.00 12.96
266 3 42.12 0.00 16.20
267 2 42.12 0.00 19.44
268 3 42.12 0.00 22.68
269 1 42.12 0.00 25.92
270 3 42.12 0.00 29.16
271 1 42.12 0.00 32.40
272 1 42.12 0.00 35.64
273 1 42.12 0.00 38.88
274 3 42.12 0.00 42.12
275 2 42.12 0.00 45.36
276 1 42.12 0.00 48.60
277 3 42.12 0.00 51.84
278 1 42.12 0.00 55.08
279 2 42.12 0.00 58.32
280 2 42.12 0.00 61.56
281 3 45.36 0.00 0.00
282 3 45.36 0.00 3.24
283 3 45.36 0.00 6.48
284 3 45.36 0.00 9.72
285 1 45.36 0.00 12.96
286 2 45.36 0.00 16.20
287 1 45.36 0.00 19.44
288 2 45.36 0.00 22.68
289 1 45.36 0.00 25.92
290 2 45.36 0.00 29.16
291 1 45.36 0.00 32.40
292 3 45.36 0.00 35.64
293 3 45.36 0.00 38.88
294 1 45.36 0.00 42.12
295 3 45.36 0.00 45.36
296 3 45.36 0.00 48.60
297 1 45.36 0.00 51.84
298 2 45.36 0.00 55.08
299 2 45.36 0.00 58.32
300 2 45.36 0.00 61.56
301 3 48.60 0.00 0.00
302 3 48.60 0.00 3.24
303 3 48.60 0.00 6.48
304 1 48.60 0.00 9.72
305 1 48.60 0.00 12.96
306 2 48.60 0.00 16.20
307 3 48.60 0.00 19.44
308 1 48.60 0.00 22.68
309 2 48.60 0.00 25.92
310 2 48.60 0.00 29.16
311 2 48.60 0.00 32.40
312 2 48.60 0.00 35.64
313 2 48.60 0.00 38.88
314 1 48.60 0.00 42.12
315 3 48.60 0.00 45.36
316 3 48.60 0.00 48.60
317 2 48.60 0.00 51.84
318 1 48.60 0.00 55.08
319 1 48.60 0.00 58.32
320 1 48.60 0.00 61.56
321 1 51.84 0.00 0.00
322 1 51.84 0.00 3.24
323 3 51.84 0.00 6.48
324 2 51.84 0.00 9.72
325 2 51.84 0.00 12.96
326 2 51.84 0.00 16.20
327 2 51.84 0.00 19.44
328 1 51.84 0.00 22.68
329 2 51.84 0.00 25.92
330 2 51.84 0.00 29.16
331 2 51.84 0.00 32.40
332 2 51.84 0.00 35.64
333 3 51.84 0.00 38.88
334 1 51.84 0.00 42.12
335 2 51.84 0.00 45.36
336 1 51.84 0.00 48.60
337 2 51.84 0.00 51.84
338 3 51.84 0.00 55.08
339 2 51.84 0.00 58.32
340 2 51.84 0.00 61.56
341 3 55.08 0.00 0.00
342 1 55.08 0.00 3.24
343 2 55.08 0.00 6.48
344 1 55.08 0.00 9.72
345 3 55.08 0.00 12.96
346 1 55.08 0.00 16.20
347 1 55.08 0.00 19.44
348 2 55.08 0.00 22.68
349 1 55.08 0.00 25.92
350 3 55.08 0.00 29.16
351 2 55.08 0.00 32.40
352 1 55.08 0.00 35.64
353 3 55.08 0.00 38.88
354 3 55.08 0.00 42.12
355 1 55.08 0.00 45.36
356 2 55.08 0.00 48.60
357 2 55.08 0.00 51.84
358 1 55.08 0.00 55.08
359 3 55.08 0.00 58.32
360 2 55.08 0.00 61.56
361 2 58.32 0.00 0.00
362 1 58.32 0.00 3.24
363 2 58.32 0.00 6.48
364 1 58.32 0.00 9.72
365 1 58.32 0.00 12.96
366 2 58.32 0.00 16.20
367 2 58.32 0.00 19.44
368 2 58.32 0.00 22.68
369 3 58.32 0.00 25.92
370 2 58.32 0.00 29.16
371 1 58.32 0.00 32.40
372 2 58.32 0.00 35.64
373 1 58.32 0.00 38.88
374 2 58.32 0.00 42.12
375 2 58.32 0.00 45.36
376 1 58.32 0.00 48.60
377 3 58.32 0.00 51.84
378 2 58.32 0.00 55.08
379 1 58.32 0.00 58.32
380 2 58.32 0.00 61.56
381 1 61.56 0.00 0.00
382 2 61.56 0.00 3.24
383 2 61.56 0.00 6.48
384 3 61.56 0.00 9.72
385 1 61.56 0.00 12.96
386 3 61.56 0.00 16.20
387 3 61.56 0.00 19.44
388 1 61.56 0.00 22.68
389 1 61.56 0.00 25.92
390 1 61.56 0.00 29.16
391 2 61.56 0.00 32.40
392 1 61.56 0.00 35.64
393 3 61.56 0.00 38.88
394 2 61.56 0.00 42.12
395 2 61.56 0.00 45.36
396 3 61.56 0.00 48.60
397 2 61.56 0.00 51.84
398 3 61.56 0.00 55.08
399 2 61.56 0.00 58.32
400 2 61.56 0.00 61.56
401 2 0.00 3.24 0.00
402 1 0.00 3.24 3.24
403 2 0.00 3.24 6.48
404 1 0.00 3.24 9.72
405 3 0.00 3.24 12.96
406 3 0.00 3.24 16.20
407 2 0.00 3.24 19.44
408 1 0.00 3.24 22.68
409 1 0.00 3.24 25.92
410 1 0.00 3.24 29.16
411 2 0.00 3.24 32.40
412 1 0.00 3.24 35.64
413 1 0.00 3.24 38.88
414 2 0.00 3.24 42.12
415 2 0.00 3.24 45.36
416 2 0.00 3.24 48.60
417 1 0.00 3.24 51.84
418 2 0.00 3.24 55.08
419 3 0.00 3.24 58.32
420 1 0.00 3.24 61.56
421 1 3.24 3.24 0.00
422 2 3.24 3.24 3.24
423 3 3.24 3.24 6.48
424 1 3.24 3.24 9.72
425 3 3.24 3.24 12.96
426 1 3.24 3.24 16.20
427 3 3.24 3.24 19.44
428 3 3.24 3.24 22.68
429 1 3.24 3.24 25.92
430 3 3.24 3.24 29.16
431 2 3.24 3.24 32.40
432 2 3.24 3.24 35.64
433 3 3.24 3.24 38.88
434 3 3.24 3.24 42.12
435 2 3.24 3.24 45.36
436 2 3.24 3.24 48.60
437 2 3.24 3.24 51.84
438 3 3.24 3.24 55.08
439 3 3.24 3.24 58.32
440 1 3.24 3.24 61.56
441 1 6.48 3.24 0.00
442 1 6.48 3.24 3.24
443 1 6.48 3.24 6.48
444 1 6.48 3.24 9.72
445 1 6.48 3.24 12.96
446 3 6.48 3.24 16.20
447 3 6.48 3.24 19.44
448 3 6.48 3.24 22.68
449 3 6.48 3.24 25.92
450 2 6.48 3.24 29.16
451 1 6.48 3.24 32.40
452 3 6.48 3.24 35.64
453 2 6.48 3.24 38.88
454 3 6.48 3.24 42.12
455 2 6.48 3.24 45.36
456 3 6.48 3.24 48.60
457 1 6.48 3.24 51.84
458 2 6.48 3.24 55.08
459 3 6.48 3.24 58.32
460 3 6.48 3.24 61.56
461 1 9.72 3.24 0.00
462 1 9.72 3.24 3.24
463 2 9.72 3.24 6.48
464 1 9.72 3.24 9.72
465 3 9.72 3.24 12.96
466 2 9.72 3.24 16.20
467 3 9.72 3.24 19.44
468 3 9.72 3.24 22.68
469 3 9.72 3.24 25.92
470 3 9.72 3.24 29.16
471 1 9.72 3.24 32.40
472 1 9.72 3.24 35.64
473 1 9.72 3.24 38.88
474 3 9.72 3.24 42.12
475 3 9.72 3.24 45.36
476 2 9.72 3.24 48.60
477 3 9.72 3.24 51.84
478 1 9.72 3.24 55.08
479 3 9.72 3.24 58.32
480 2 9.72 3.24 61.56
481 2 12.96 3.24 0.00
482 1 12.96 3.24 3.24
483 1 12.96 3.24 6.48
484 3 12.96 3.24 9.72
485 3 12.96 3.24 12.96
486 1 12.96 3.24 16.20
487 3 12.96 3.24 19.44
488 3 12.96 3.24 22.68
489 1 12.96 3.24 25.92
490 2 12.96 3.24 29.16
491 1 12.96 3.24 32.40
492 3 12.96 3.24 35.64
493 1 12.96 3.24 38.88
494 3 12.96 3.24 42.12
495 3 12.96 3.24 45.36
496 3 12.96 3.24 48.60
497 2 12.96 3.24 51.84
498 2 12.96 3.24 55.08
499 2 12.96 3.24 58.32
500 3 12.96 3.24 61.56
501 3 16.20 3.24 0.00
502 3 16.20 3.24 3.24
503 1 16.20 3.24 6.48
504 3 16.20 3.24 9.72
505 2 16.20 3.24 12.96
506 1 16.20 3.24 16.20
507 2 16.20 3.24 19.44
508 1 16.20 3.24 22.68
509 1 16.20 3.24 25.92
510 1 16.20 3.24 29.16
511 1 16.20 3.24 32.40
512 1 16.20 3.24 35.64
513 3 16.20 3.24 38.88
514 3 16.20 3.24 42.12
515 1 16.20 3.24 45.36
516 2 16.20 3.24 48.60
517 2 16.20 3.24 51.84
518 2 16.20 3.24 55.08
519 1 16.20 3.24 58.32
520 2 16.20 3.24 61.56
521 2 19.44 3.24 0.00
522 1 19.44 3.24 3.24
523 1 19.44 3.24 6.48
524 1 19.44 3.24 9.72
525 2 19.44 3.24 12.96
526 1 19.44 3.24 16.20
527 2 19.44 3.24 19.44
528 2 19.44 3.24 22.68
529 3 19.44 3.24 25.92
530 2 19.44 3.24 29.16
531 3 19.44 3.24 32.40
532 3 19.44 3.24 35.64
533 2 19.44 3.24 38.88
534 2 19.44 3.24 42.12
535 3 19.44 3.24 45.36
536 3 19.44 3.24 48.60
537 2 19.44 3.24 51.84
538 3 19.44 3.24 55.08
539 2 19.44 3.24 58.32
540 3 19.44 3.24 61.56
541 1 22.68 3.24 0.00
542 2 22.68 3.24 3.24
543 1 22.68 3.24 6.48
544 2 22.68 3.24 9.72
545 2 22.68 3.24 12.96
546 1 22.68 3.24 16.20
547 3 22.68 3.24 19.44
548 1 22.68 3.24 22.68
549 2 22.68 3.24 25.92
550 2 22.68 3.24 29.16
551 3 22.68 3.24 32.40
552 2 22.68 3.24 35.64
553 2 22.68 3.24 38.88
554 3 22.68 3.24 42.12
555 3 22.68 3.24 45.36
556 3 22.68 3.24 48.60
557 2 22.68 3.24 51.84
558 2 22.68 3.24 55.08
559 1 22.68 3.24 58.32
560 2 22.68 3.24 61.56
561 2 25.92 3.24 0.00
562 1 25.92 3.24 3.24
563 1 25.92 3.24 6.48
564 2 25.92 3.24 9.72
565 2 25.92 3.24 12.96
566 1 25.92 3.24 16.20
567 1 25.92 3.24 19.44
568 3 25.92 3.24 22.68
569 1 25.92 3.24 25.92
570 3 25.92 3.24 29.16
571 2 25.92 3.24 32.40
572 2 25.92 3.24 35.64
573 1 25.92 3.24 38.88
574 1 25.92 3.24 42.12
575 3 25.92 3.24 45.36
576 2 25.92 3.24 48.60
577 1 25.92 3.24 51.84
578 2 25.92 3.24 55.08
579 2 25.92 3.24 58.32
580 2 25.92 3.24 61.56
581 2 29.16 3.24 0.00
582 1 29.16 3.24 3.24
583 2 29.16 3.24 6.48
584 3 29.16 3.24 9.72
585 1 29.16 3.24 12.96
586 3 29.16 3.24 16.20
587 2 29.16 3.24 19.44
588 1 29.16 3.24 22.68
589 2 29.16 3.24 25.92
590 2 29.16 3.24 29.16
591 3 29.16 3.24 32.40
592 3 29.16 3.24 35.64
593 3 29.16 3.24 38.88
594 2 29.16 3.24 42.12
595 3 29.16 3.24 45.36
596 3 29.16 3.24 48.60
597 1 29.16 3.24 51.84
598 2 29.16 3.24 55.08
599 2 29.16 3.24 58.32
600 3 29.16 3.24 61.56
601 3 32.40 3.24 0.00
602 2 32.40 3.24 3.24
603 3 32.40 3.24 6.48
604 2 32.40 3.24 9.72
605 2 32.40 3.24 12.96
606 3 32.40 3.24 16.20
607 3 32.40 3.24 19.44
608 3 32.40 3.24 22.68
609 1 32.40 3.24 25.92
610 2 32.40 3.24 29.16
611 3 32.40 3.24 32.40
612 1 32.40 3.24 35.64
613 2 32.40 3.24 38.88
614 2 32.40 3.24 42.12
615 1 32.40 3.24 45.36
616 1 32.40 3.24 48.60
617 3 32.40 3.24 51.84
618 1 32.40 3.24 55.08
619 2 32.40 3.24 58.32
620 3 32.40 3.24 61.56
621 3 35.64 3.24 0.00
622 1 35.64 3.24 3.24
623 1 35.64 3.24 6.48
624 2 35.64 3.24 9.72
625 3 35.64 3.24 12.96
626 3 35.64 3.24 16.20
627 3 35.64 3.24 19.44
628 2 35.64 3.24 22.68
629 3 35.64 3.24 25.92
630 3 35.64 3.24 29.16
631 3 35.64 3.24 32.40
632 2 35.64 3.24 35.64
633 1 35.64 3.24 38.88
634 1 35.64 3.24 42.12
635 3 35.64 3.24 45.36
636 3 35.64 3.24 48.60
637 3 35.64 3.24 51.84
638 3 35.64 3.24 55.08
639 1 35.64 3.24 58.32
640 1 35.64 3.24 61.56
641 1 38.88 3.24 0.00
642 2 38.88 3.24 3.24
643 1 38.88 3.24 6.48
644 3 38.88 3.24 9.72
645 3 38.88 3.24 12.96
646 3 38.88 3.24 16.20
647 2 38.88 3.24 19.44
648 1 38.88 3.24 22.68
649 3 38.88 3.24 25.92
650 2 38.88 3.24 29.16
651 2 38.88 3.24 32.40
652 3 38.88 3.24 35.64
653 2 38.88 3.24 38.88
654 1 38.88 3.24 42.12
655 2 38.88 3.24 45.36
656 3 38.88 3.24 48.60
657 2 38.88 3.24 51.84
658 2 38.88 3.24 55.08
659 3 38.88 3.24 58.32
660 3 38.88 3.24 61.56
661 3 42.12 3.24 0.00
662 3 42.12 3.24 3.24
663 2 42.12 3.24 6.48
664 3 42.12 3.24 9.72
665 1 42.12 3.24 12.96
666 2 42.12 3.24 16.20
667 2 42.12 3.24 19.44
668 3 42.12 3.24 22.68
669 2 42.12 3.24 25.92
670 2 42.12 3.24 29.16
671 1 42.12 3.24 32.40
672 2 42.12 3.24 35.64
673 2 42.12 3.24 38.88
674 3 42.12 3.24 42.12
675 1 42.12 3.24 45.36
676 1 42.12 3.24 48.60
677 3 42.12 3.24 51.84
678 1 42.12 3.24 55.08
679 3 42.12 3.24 58.32
680 3 42.12 3.24 61.56
681 3 45.36 3.24 0.00
682 2 45.36 3.24 3.24
683 2 45.36 3.24 6.48
684 3 45.36 3.24 9.72
685 1 45.36 3.24 12.96
686 3 45.36 3.24 16.20
687 2 45.36 3.24 19.44
688 1 45.36 3.24 22.68
689 3 45.36 3.24 25.92
690 1 45.36 3.24 29.16
691 1 45.36 3.24 32.40
692 2 45.36 3.24 35.64
693 2 45.36 3.24 38.88
694 3 45.36 3.24 42.12
695 2 45.36 3.24 45.36
696 1 45.36 3.24 48.60
697 1 45.36 3.24 51.84
698 3 45.36 3.24 55.08
699 3 45.36 3.24 58.32
700 1 45.36 3.24 61.56
701 3 48.60 3.24 0.00
702 2 48.60 3.24 3.24
703 2 48.60 3.24 6.48
704 3 48.60 3.24 9.72
705 1 48.60 3.24 12.96
706 2 48.60 3.24 16.20
707 1 48.60 3.24 19.44
708 3 48.60 3.24 22.68
709 3 48.60 3.24 25.92
710 2 48.60 3.24 29.16
711 3 48.60 3.24 32.40
712 2 48.60 3.24 35.64
713 3 48.60 3.24 38.88
714 1 48.60 3.24 42.12
715 2 48.60 3.24 45.36
716 2 48.60 3.24 48.60
717 1 48.60 3.24 51.84
718 2 48.60 3.24 55.08
719 2 48.60 3.24 58.32
720 1 48.60 3.24 61.56
721 3 51.84 3.24 0.00
722 3 51.84 3.24 3.24
723 1 51.84 3.24 6.48
724 3 51.84 3.24 9.72
725 3 51.84 3.24 12.96
726 1 51.84 3.24 16.20
727 2 51.84 3.24 19.44
728 2 51.84 3.24 22.68
729 3 51.84 3.24 25.92
730 1 51.84 3.24 29.16
731 1 51.84 3.24 32.40
732 2 51.84 3.24 35.64
733 1 51.84 3.24 38.88
734 1 51.84 3.24 42.12
735 3 51.84 3.24 45.36
736 3 51.84 3.24 48.60
737 2 51.84 3.24 51.84
738 2 51.84 3.24 55.08
739 3 51.84 3.24 58.32
740 1 51.84 3.24 61.56
741 2 55.08 3.24 0.00
742 2 55.08 3.24 3.24
743 3 55.08 3.24 6.48
744 2 55.08 3.24 9.72
745 3 55.08 3.24 12.96
746 1 55.08 3.24 16.20
747 3 55.08 3.24 19.44
748 2 55.08 3.24 22.68
749 3 55.08 3.24 25.92
750 1 55.08 3.24 29.16
751 3 55.08 3.24 32.40
752 2 55.08 3.24 35.64
753 3 55.08 3.24 38.88
754 1 55.08 3.24 42.12
755 2 55.08 3.24 45.36
756 3 55.08 3.24 48.60
757 2 55.08 3.24 51.84
758 3 55.08 3.24 55.08
759 2 55.08 3.24 58.32
760 2 55.08 3.24 61.56
761 2 58.32 3.24 0.00
762 1 58.32 3.24 3.24
763 3 58.32 3.24 6.48
764 2 58.32 3.24 9.72
765 2 58.32 3.24 12.96
766 1 58.32 3.24 16.20
767 2 58.32 3.24 19.44
768 2 58.32 3.24 22.68
769 3 58.32 3.24 25.92
770 2 58.32 3.24 29.16
771 1 58.32 3.24 32.40
772 1 58.32 3.24 35.64
773 2 58.32 3.24 38.88
774 2 58.32 3.24 42.12
775 1 58.32 3.24 45.36
776 3 58.32 3.24 48.60
777 2 58.32 3.24 51.84
778 1 58.32 3.24 55.08
779 2 58.32 3.24 58.32
780 1 58.32 3.24 61.56
781 1 61.56 3.24 0.00
782 1 61.56 3.24 3.24
783 2 61.56 3.24 6.48
784 2 61.56 3.24 9.72
785 2 61.56 3.24 12.96
786 2 61.56 3.24 16.20
787 1 61.56 3.24 19.44
788 3 61.56 3.24 22.68
789 2 61.56 3.24 25.92
790 1 61.56 3.24 29.16
791 2 61.56 3.24 32.40
792 3 61.56 3.24 35.64
793 1 61.56 3.24 38.88
794 2 61.56 3.24 42.12
795 3 61.56 3.24 45.36
796 2 61.56 3.24 48.60
797 1 61.56 3.24 51.84
798 2 61.56 3.24 55.08
799 3 61.56 3.24 58.32
800 1 61.56 3.24 61.56
801 2 0.00 6.48 0.00
802 1 0.00 6.48 3.24
803 3 0.00 6.48 6.48
804 1 0.00 6.48 9.72
805 3 0.00 6.48 12.96
806 2 0.00 6.48 16.20
807 1 0.00 6.48 19.44
808 3 0.00 6.48 22.68
809 1 0.00 6.48 25.92
810 1 0.00 6.48 29.16
811 2 0.00 6.48 32.40
812 1 0.00 6.48 35.64
813 1 0.00 6.48 38.88
814 3 0.00 6.48 42.12
815 2 0.00 6.48 45.36
816 1 0.00 6.48 48.60
817 1 0.00 6.48 51.84
818 2 0.00 6.48 55.08
819 2 0.00 6.48 58.32
820 2 0.00 6.48 61.56
821 1 3.24 6.48 0.00
822 1 3.24 6.48 3.24
823 1 3.24 6.48 6.48
824 3 3.24 6.48 9.72
825 1 3.24 6.48 12.96
826 2 3.24 6.48 16.20
827 2 3.24 6.48 19.44
828 2 3.24 6.48 22.68
829 3 3.24 6.48 25.92
830 2 3.24 6.48 29.16
831 1 3.24 6.48 32.40
832 3 3.24 6.48 35.64
833 3 3.24 6.48 38.88
834 3 3.24 6.48 42.12
835 2 3.24 6.48 45.36
836 1 3.24 6.48 48.60
837 3 3.24 6.48 51.84
838 3 3.24 6.48 55.08
839 2 3.24 6.48 58.32
840 3 3.24 6.48 61.56
841 1 6.48 6.48 0.00
842 3 6.48 6.48 3.24
843 1 6.48 6.48 6.48
844 1 6.48 6.48 9.72
845 1 6.48 6.48 12.96
846 2 6.48 6.48 16.20
847 1 6.48 6.48 19.44
848 1 6.48 6.48 22.68
849 1 6.48 6.48 25.92
850 1 6.48 6.48 29.16
851 2 6.48 6.48 32.40
852 2 6.48 6.48 35.64
853 2 6.48 6.48 38.88
854 2 6.48 6.48 42.12
855 1 6.48 6.48 45.36
856 2 6.48 6.48 48.60
857 1 6.48 6.48 51.84
858 1 6.48 6.48 55.08
859 3 6.48 6.48 58.32
860 1 6.48 6.48 61.56
861 2 9.72 6.48 0.00
862 2 9.72 6.48 3.24
863 2 9.72 6.48 6.48
864 3 9.72 6.48 9.72
865 2 9.72 6.48 12.96
866 2 9.72 6.48 16.20
867 1 9.72 6.48 19.44
868 2 9.72 6.48 22.68
869 2 9.72 6.48 25.92
870 3 9.72 6.48 29.16
871 2 9.72 6.48 32.40
872 1 9.72 6.48 35.64
873 1 9.72 6.48 38.88
874 2 9.72 6.48 42.12
875 1 9.72 6.48 45.36
876 1 9.72 6.48 48.60
877 1 9.72 6.48 51.84
878 2 9.72 6.48 55.08
879 3 9.72 6.48 58.32
880 2 9.72 6.48 61.56
881 1 12.96 6.48 0.00
882 2 12.96 6.48 3.24
883 2 12.96 6.48 6.48
884 1 12.96 6.48 9.72
885 2 12.96 6.48 12.96
886 3 12.96 6.48 16.20
887 1 12.96 6.48 19.44
888 3 12.96 6.48 22.68
889 2 12.96 6.48 25.92
890 2 12.96 6.48 29.16
891 1 12.96 6.48 32.40
892 1 12.96 6.48 35.64
893 1 12.96 6.48 38.88
894 2 12.96 6.48 42.12
895 3 12.96 6.48 45.36
896 1 12.96 6.48 48.60
897 2 12.96 6.48 51.84
898 1 12.96 6.48 55.08
899 3 12.96 6.48 58.32
900 3 12.96 6.48 61.56
901 1 16.20 6.48 0.00
902 2 16.20 6.48 3.24
903 1 16.20 6.48 6.48
904 2 16.20 6.48 9.72
905 1 16.20 6.48 12.96
906 1 16.20 6.48 16.20
907 3 16.20 6.48 19.44
908 2 16.20 6.48 22.68
909 2 16.20 6.48 25.92
910 3 16.20 6.48 29.16
911 3 16.20 6.48 32.40
912 3 16.20 6.48 35.64
913 3 16.20 6.48 38.88
914 2 16.20 6.48 42.12
915 1 16.20 6.48 45.36
916 3 16.20 6.48 48.60
917 2 16.20 6.48 51.84
918 3 16.20 6.48 55.08
919 2 16.20 6.48 58.32
920 2 16.20 6.48 61.56
921 3 19.44 6.48 0.00
922 1 19.44 6.48 3.24
923 3 19.44 6.48 6.48
924 1 19.44 6.48 9.72
925 3 19.44 6.48 12.96
926 2 19.44 6.48 16.20
927 1 19.44 6.48 19.44
928 2 19.44 6.48 22.68
929 2 19.44 6.48 25.92
930 2 19.44 6.48 29.16
931 1 19.44 6.48 32.40
932 3 19.44 6.48 35.64
933 3 19.44 6.48 38.88
934 1 19.44 6.48 42.12
935 2 19.44 6.48 45.36
936 2 19.44 6.48 48.60
937 2 19.44 6.48 51.84
938 1 19.44 6.48 55.08
939 1 19.44 6.48 58.32
940 1 19.44 6.48 61.56
941 3 22.68 6.48 0.00
942 2 22.68 6.48 3.24
943 3 22.68 6.48 6.48
944 3 22.68 6.48 9.72
945 1 22.68 6.48 12.96
946 3 22.68 6.48 16.20
947 3 22.68 6.48 19.44
948 1 22.68 6.48 22.68
949 1 22.68 6.48 25.92
950 1 22.68 6.48 29.16
951 1 22.68 6.48 32.40
952 1 22.68 6.48 35.64
953 1 22.68 6.48 38.88
954 1 22.68 6.48 42.12
955 3 22.68 6.48 45.36
956 1 22.68 6.48 48.60
957 1 22.68 6.48 51.84
958 3 22.68 6.48 55.08
959 3 22.68 6.48 58.32
960 3 22.68 6.48 61.56
961 3 25.92 6.48 0.00
962 3 25.92 6.48 3.24
963 2 25.92 6.48 6.48
964 2 25.92 6.48 9.72
965 2 25.92 6.48 12.96
966 3 25.92 6.48 16.20
967 2 25.92 6.48 19.44
968 3 25.92 6.48 22.68
969 3 25.92 6.48 25.92
970 3 25.92 6.48 29.16
971 3 25.92 6.48 32.40
972 2 25.92 6.48 35.64
973 1 25.92 6.48 38.88
974 3 25.92 6.48 42.12
975 1 25.92 6.48 45.36
976 3 25.92 6.48 48.60
977 2 25.92 6.48 51.84
978 1 25.92 6.48 55.08
979 3 25.92 6.48 58.32
980 1 25.92 6.48 61.56
981 1 29.16 6.48 0.00
982 3 29.16 6.48 3.24
983 3 29.16 6.48 6.48
984 2 29.16 6.48 9.72
985 3 29.16 6.48 12.96
986 2 29.16 6.48 16.20
987 2 29.16 6.48 19.44
988 1 29.16 6.48 22.68
989 1 29.16 6.48 25.92
990 2 29.16 6.48 29.16
991 1 29.16 6.48 32.40
992 2 29.16 6.48 35.64
993 3 29.16 6.48 38.88
994 2 29.16 6.48 42.12
995 3 29.16 6.48 45.36
996 2 29.16 6.48 48.60
997 2 29.16 6.48 51.84
998 3 29.16 6.48 55.08
999 1 29.16 6.48 58.32
1000 2 29.16 6.48 61.56
1001 3 32.40 6.48 0.00
1002 2 32.40 6.48 3.24
1003 1 32.40 6.48 6.48
1004 1 32.40 6.48 9.72
1005 1 32.40 6.48 12.96
1006 2 32.40 6.48 16.20
1007 1 32.40 6.48 19.44
1008 3 32.40 6.48 22.68
1009 2 32.40 6.48 25.92
1010 1 32.40 6.48 29.16
1011 3 32.40 6.48 32.40
1012 2 32.40 6.48 35.64
1013 3 32.40 6.48 38.88
1014 2 32.40 6.48 42.12
1015 3 32.40 6.48 45.36
1016 2 32.40 6.48 48.60
1017 2 32.40 6.48 51.84
1018 3 32.40 6.48 55.08
1019 1 32.40 6.48 58.32
1020 1 32.40 6.48 61.56
1021 3 35.64 6.48 0.00
1022 3 35.64 6.48 3.24
1023 2 35.64 6.48 6.48
1024 2 35.64 6.48 9.72
1025 3 35.64 6.48 12.96
1026 1 35.64 6.48 16.20
1027 3 35.64 6.48 19.44
1028 3 35.64 6.48 22.68
1029 2 35.64 6.48 25.92
1030 2 35.64 6.48 29.16
1031 1 35.64 6.48 32.40
1032 1 35.64 6.48 35.64
1033 2 35.64 6.48 38.88
1034 1 35.64 6.48 42.12
1035 3 35.64 6.48 45.36
1036 1 35.64 6.48 48.60
1037 3 35.64 6.48 51.84
1038 3 35.64 6.48 55.08
1039 3 35.64 6.48 58.32
1040 1 35.64 6.48 61.56
1041 1 38.88 6.48 0.00
1042 1 38.88 6.48 3.24
1043 1 38.88 6.48 6.48
1044 2 38.88 6.48 9.72
1045 2 38.88 6.48 12.96
1046 1 38.88 6.48 16.20
1047 3 38.88 6.48 19.44
1048 1 38.88 6.48 22.68
1049 1 38.88 6.48 25.92
1050 3 38.88 6.48 29.16
1051 1 38.88 6.48 32.40
1052 2 38.88 6.48 35.64
1053 2 38.88 6.48 38.88
1054 3 38.88 6.48 42.12
1055 1 38.88 6.48 45.36
1056 1 38.88 6.48 48.60
1057 2 38.88 6.48 51.84
1058 1 38.88 6.48 55.08
1059 2 38.88 6.48 58.32
1060 3 38.88 6.48 61.56
1061 3 42.12 6.48 0.00
1062 2 42.12 6.48 3.24
1063 3 42.12 6.48 6.48
1064 3 42.12 6.48 9.72
1065 1 42.12 6.48 12.96
1066 1 42.12 6.48 16.20
1067 1 42.12 6.48 19.44
1068 1 42.12 6.48 22.68
1069 1 42.12 6.48 25.92
1070 2 42.12 6.48 29.16
1071 3 42.12 6.48 32.40
1072 3 42.12 6.48 35.64
1073 2 42.12 6.48 38.88
1074 3 42.12 6.48 42.12
1075 2 42.12 6.48 45.36
1076 1 42.12 6.48 48.60
1077 2 42.12 6.48 51.84
1078 3 42.12 6.48 55.08
1079 2 42.12 6.48 58.32
1080 1 42.12 6.48 61.56
1081 1 45.36 6.48 0.00
1082 3 45.36 6.48 3.24
1083 3 45.36 6.48 6.48
1084 3 45.36 6.48 9.72
1085 1 45.36 6.48 12.96
1086 1 45.36 6.48 16.20
1087 1 45.36 6.48 19.44
1088 2 45.36 6.48 22.68
1089 2 45.36 6.48 25.92
1090 3 45.36 6.48 29.16
1091 1 45.36 6.48 32.40
1092 3 45.36 6.48 35.64
1093 3 45.36 6.48 38.88
1094 1 45.36 6.48 42.12
1095 3 45.36 6.48 45.36
1096 3 45.36 6.48 48.60
1097 2 45.36 6.48 51.84
1098 2 45.36 6.48 55.08
1099 3 45.36 6.48 58.32
1100 3 45.36 6.48 61.56
1101 2 48.60 6.48 0.00
1102 3 48.60 6.48 3.24
1103 1 48.60 6.48 6.48
1104 1 48.60 6.48 9.72
1105 2 48.60 6.48 12.96
1106 1 48.60 6.48 16.20
1107 2 48.60 6.48 19.44
1108 2 48.60 6.48 22.68
1109 1 48.60 6.48 25.92
1110 3 48.60 6.48 29.16
1111 3 48.60 6.48 32.40
1112 2 48.60 6.48 35.64
1113 2 48.60 6.48 38.88
1114 1 48.60 6.48 42.12
1115 3 48.60 6.48 45.36
1116 3 48.60 6.48 48.60
1117 2 48.60 6.48 51.84
1118 3 48.60 6.48 55.08
1119 2 48.60 6.48 58.32
1120 2 48.60 6.48 61.56
1121 3 51.84 6.48 0.00
1122 1 51.84 6.48 3.24
1123 3 51.84 6.48 6.48
1124 1 51.84 6.48 9.72
1125 2 51.84 6.48 12.96
1126 3 51.84 6.48 16.20
1127 2 51.84 6.48 19.44
1128 2 51.84 6.48 22.68
1129 3 51.84 6.48 25.92
1130 2 51.84 6.48 29.16
1131 2 51.84 6.48 32.40
1132 1 51.84 6.48 35.64
1133 1 51.84 6.48 38.88
1134 3 51.84 6.48 42.12
1135 1 51.84 6.48 45.36
1136 2 51.84 6.48 48.60
1137 1 51.84 6.48 51.84
1138 1 51.84 6.48 55.08
1139 3 51.84 6.48 58.32
1140 1 51.84 6.48 61.56
1141 2 55.08 6.48 0.00
1142 1 55.08 6.48 3.24
1143 1 55.08 6.48 6.48
1144 2 55.08 6.48 9.72
1145 3 55.08 6.48 12.96
1146 2 55.08 6.48 16.20
1147 2 55.08 6.48 19.44
1148 2 55.08 6.48 22.68
1149 2 55.08 6.48 25.92
1150 3 55.08 6.48 29.16
1151 1 55.08 6.48 32.40
1152 1 55.08 6.48 35.64
1153 1 55.08 6.48 38.88
1154 3 55.08 6.48 42.12
1155 2 55.08 6.48 45.36
1156 3 55.08 6.48 48.60
1157 1 55.08 6.48 51.84
1158 3 55.08 6.48 55.08
1159 1 55.08 6.48 58.32
1160 1 55.08 6.48 61.56
1161 3 58.32 6.48 0.00
1162 3 58.32 6.48 3.24
1163 2 58.32 6.48 6.48
1164 2 58.32 6.48 9.72
1165 1 58.32 6.48 12.96
1166 3 58.32 6.48 16.20
1167 1 58.32 6.48 19.44
1168 1 58.32 6.48 22.68
1169 1 58.32 6.48 25.92
1170 1 58.32 6.48 29.16
1171 2 58.32 6.48 32.40
1172 1 58.32 6.48 35.64
1173 1 58.32 6.48 38.88
1174 1 58.32 6.48 42.12
1175 3 58.32 6.48 45.36
1176 3 58.32 6.48 48.60
1177 2 58.32 6.48 51.84
1178 2 58.32 6.48 55.08
1179 1 58.32 6.48 58.32
1180 1 58.32 6.48 61.56
1181 1 61.56 6.48 0.00
1182 1 61.56 6.48 3.24
1183 3 61.56 6.48 6.48
1184 3 61.56 6.48 9.72
1185 3 61.56 6.48 12.96
1186 3 61.56 6.48 16.20
1187 2 61.56 6.48 19.44
1188 3 61.56 6.48 22.68
1189 2 61.56 6.48 25.92
1190 3 61.56 6.48 29.16
1191 2 61.56 6.48 32.40
1192 3 61.56 6.48 35.64
1193 3 61.56 6.48 38.88
1194 1 61.56 6.48 42.12
1195 1 61.56 6.48 45.36
1196 3 61.56 6.48 48.60
1197 2 61.56 6.48 51.84
1198 3 61.56 6.48 55.08
1199 1 61.56 6.48 58.32
1200 2 61.56 6.48 61.56
1201 3 0.00 9.72 0.00
1202 3 0.00 9.72 3.24
1203 3 0.00 9.72 6.48
1204 3 0.00 9.72 9.72
1205 3 0.00 9.72 12.96
1206 3 0.00 9.72 16.20
1207 3 0.00 9.72 19.44
1208 1 0.00 9.72 22.68
1209 2 0.00 9.72 25.92
1210 1 0.00 9.72 29.16
1211 3 0.00 9.72 32.40
1212 1 0.00 9.72 35.64
1213 3 0.00 9.72 38.88
1214 3 0.00 9.72 42.12
1215 3 0.00 9.72 45.36
1216 3 0.00 9.72 48.60
1217 2 0.00 9.72 51.84
1218 3 0.00 9.72 55.08
1219 1 0.00 9.72 58.32
1220 3 0.00 9.72 61.56
1221 2 3.24 9.72 0.00
1222 1 3.24 9.72 3.24
1223 1 3.24 9.72 6.48
1224 3 3.24 9.72 9.72
1225 3 3.24 9.72 12.96
1226 3 3.24 9.72 16.20
1227 2 3.24 9.72 19.44
1228 3 3.24 9.72 22.68
1229 3 3.24 9.72 25.92
1230 3 3.24 9.72 29.16
1231 2 3.24 9.72 32.40
1232 2 3.24 9.72 35.64
1233 2 3.24 9.72 38.88
1234 2 3.24 9.72 42.12
1235 1 3.24 9.72 45.36
1236 1 3.24 9.72 48.60
1237 1 3.24 9.72 51.84
1238 3 3.24 9.72 55.08
1239 2 3.24 9.72 58.32
1240 2 3.24 9.72 61.56
1241 3 6.48 9.72 0.00
1242 1 6.48 9.72 3.24
1243 1 6.48 9.72 6.48
1244 1 6.48 9.72 9.72
1245 3 6.48 9.72 12.96
1246 1 6.48 9.72 16.20
1247 1 6.48 9.72 19.44
1248 3 6.48 9.72 22.68
1249 3 6.48 9.72 25.92
1250 2 6.48 9.72 29.16
1251 3 6.48 9.72 32.40
1252 2 6.48 9.72 35.64
1253 2 6.48 9.72 38.88
1254 3 6.48 9.72 42.12
1255 2 6.48 9.72 45.36
1256 2 6.48 9.72 48.60
1257 1 6.48 9.72 51.84
1258 3 6.48 9.72 55.08
1259 2 6.48 9.72 58.32
1260 1 6.48 9.72 61.56
1261 1 9.72 9.72 0.00
1262 3 9.72 9.72 3.24
1263 1 9.72 9.72 6.48
1264 1 9.72 9.72 9.72
1265 3 9.72 9.72 12.96
1266 3 9.72 9.72 16.20
1267 3 9.72 9.72 19.44
1268 1 9.72 9.72 22.68
1269 2 9.72 9.72 25.92
1270 2 9.72 9.72 29.16
1271 2 9.72 9.72 32.40
1272 1 9.72 9.72 35.64
1273 2 9.72 9.72 38.88
1274 1 9.72 9.72 42.12
1275 2 9.72 9.72 45.36
1276 2 9.72 9.72 48.60
1277 2 9.72 9.72 51.84
1278 1 9.72 9.72 55.08
1279 3 9.72 9.72 58.32
1280 3 9.72 9.72 61.56
1281 2 12.96 9.72 0.00
1282 3 12.96 9.72 3.24
1283 1 12.96 9.72 6.48
1284 3 12.96 9.72 9.72
1285 1 12.96 9.72 12.96
1286 1 12.96 9.72 16.20
1287 1 12.96 9.72 19.44
1288 3 12.96 9.72 22.68
1289 2 12.96 9.72 25.92
1290 2 12.96 9.72 29.16
1291 3 12.96 9.72 32.40
1292 3 12.96 9.72 35.64
1293 3 12.96 9.72 38.88
1294 2 12.96 9.72 42.12
1295 3 12.96 9.72 45.36
1296 2 12.96 9.72 48.60
1297 1 12.96 9.72 51.84
1298 1 12.96 9.72 55.08
1299 1 12.96 9.72 58.32
1300 1 12.96 9.72 61.56
1301 1 16.20 9.72 0.00
1302 1 16.20 9.72 3.24
1303 2 16.20 9.72 6.48
1304 2 16.20 9.72 9.72
1305 2 16.20 9.72 12.96
1306 2 16.20 9.72 16.20
1307 1 16.20 9.72 19.44
1308 1 16.20 9.72 22.68
1309 1 16.20 9.72 25.92
1310 3 16.20 9.72 29.16
1311 2 16.20 9.72 32.40
1312 3 16.20 9.72 35.64
1313 3 16.20 9.72 38.88
1314 3 16.20 9.72 42.12
1315 1 16.20 9.72 45.36